ITEM: TIMESTEP
0
ITEM: NUMBER OF ATOMS
4
ITEM: BOX BOUNDS ff ff ff
0.0 4.0
0.0 2.0
0.0 2.0
ITEM: ATOMS id x y z radius fx fy fz
0 0.0 0.0 0.0 6.957e05 0.0 0.0 0.0
1 9.9910448762e06 4.5126461224e05 0.0 1.911303e05 -1.8294620132 29.6581658434 0.0
2 -6.9392386e06 1.7682599594e06 0.0 1.815552e05 -8.8233303357 -34.0939503132 0.0
3 9.9905206766e06 4.5124093576e05 0.0 1.0e05 -0.6583369192 14.5756470261 0.0
ITEM: TIMESTEP
1
ITEM: NUMBER OF ATOMS
4
ITEM: BOX BOUNDS ff ff ff
0.0 4.0
0.0 2.0
0.0 2.0
ITEM: ATOMS id x y z radius fx fy fz
0 -6.0070184044e-04 4.7876338208e-04 0.0 6.957e05 -4.1784248991e-07 3.3076873263e-07 0.0
1 9.9854085374e06 5.366624812e05 0.0 1.911303e05 -2.0846561006 29.6455452851 0.0
2 -6.9639536417e06 1.669895485e06 0.0 1.815552e05 -8.3396192609 -34.2135685227 0.0
3 9.9968795888e06 5.0510395127e05 0.0 1.0e05 2.0598851675 18.9395609814 0.0
ITEM: TIMESTEP
2
ITEM: NUMBER OF ATOMS
4
ITEM: BOX BOUNDS ff ff ff
0.0 4.0
0.0 2.0
0.0 2.0
ITEM: ATOMS id x y z radius fx fy fz
0 -0.0024106498 0.0018953786 0.0 6.957e05 -8.3972362212e-07 6.5127782738e-07 0.0
1 9.9790373005e06 6.2202085294e05 0.0 1.911303e05 -2.3398049374 29.6307370736 0.0
2 -6.9872732766e06 1.5711964038e06 0.0 1.815552e05 -7.8543141437 -34.3263126703 0.0
3 1.0002424617e07 5.5968750368e05 0.0 1.0e05 1.7935309537 18.9582065015 0.0
ITEM: TIMESTEP
3
ITEM: NUMBER OF ATOMS
4
ITEM: BOX BOUNDS ff ff ff
0.0 4.0
0.0 2.0
0.0 2.0
ITEM: ATOMS id x y z radius fx fy fz
0 -0.0054412103 0.0042202285 0.0 6.957e05 -1.2654592849e-06 9.6147958135e-07 0.0
1 9.9719313223e06 7.0733342586e05 0.0 1.911303e05 -2.5948899349 29.6137404363 0.0
2 -7.009193055e06 1.4721825428e06 0.0 1.815552e05 -7.3675129859 -34.4321623242 0.0
3 1.000721749e07 6.1428369528e05 0.0 1.0e05 1.5354721675 18.9541437267 0.0
ITEM: TIMESTEP
4
ITEM: NUMBER OF ATOMS
4
ITEM: BOX BOUNDS ff ff ff
0.0 4.0
0.0 2.0
0.0 2.0
ITEM: ATOMS id x y z radius fx fy fz
0 -0.0097032185 0.0074235629 0.0 6.957e05 -1.6948648784e-06 1.2613292266e-06 0.0
1 9.9640908136e06 7.9259389635e05 0.0 1.911303e05 -2.8498924771 29.5945547464 0.0
2 -7.0297088095e06 1.3728737859e06 0.0 1.815552e05 -6.8793140221 -34.5310984307 0.0
3 1.0011271245e07 6.6885713837e05 0.0 1.0e05 1.2799084283 18.943338784 0.0
ITEM: TIMESTEP
5
ITEM: NUMBER OF ATOMS
4
ITEM: BOX BOUNDS ff ff ff
0.0 4.0
0.0 2.0
0.0 2.0
ITEM: ATOMS id x y z radius fx fy fz
0 -0.0152069775 0.0114755066 0.0 6.957e05 -2.1277553445e-06 1.5507849748e-06 0.0
1 9.9555160387e06 8.7779595925e05 0.0 1.911303e05 -3.104793922 29.5731795324 0.0
2 -7.0488166564e06 1.2732900698e06 0.0 1.815552e05 -6.389815706 -34.6231033431 0.0
3 1.0014590971e07 7.2339400864e05 0.0 1.0e05 1.0256243368 18.929022314 0.0
ITEM: TIMESTEP
6
ITEM: NUMBER OF ATOMS
4
ITEM: BOX BOUNDS ff ff ff
0.0 4.0
0.0 2.0
0.0 2.0
ITEM: ATOMS id x y z radius fx fy fz
0 -0.0219622567 0.0163460688 0.0 6.957e05 -2.5639452121e-06 1.8298080193e-06 0.0
1 9.9462073156e06 9.6293330821e05 0.0 1.911303e05 -3.3595756025 29.5496144787 0.0
2 -7.0665129953e06 1.1734513802e06 0.0 1.815552e05 -5.8991166907 -34.708160824 0.0
3 1.0017179658e07 7.7788599465e05 0.0 1.0e05 0.772197806 18.9122796677 0.0
ITEM: TIMESTEP
7
ITEM: NUMBER OF ATOMS
4
ITEM: BOX BOUNDS ff ff ff
0.0 4.0
0.0 2.0
0.0 2.0
ITEM: ATOMS id x y z radius fx fy fz
0 -0.0299782909 0.0220051509 0.0 6.957e05 -3.0032486439e-06 2.098362538e-06 0.0
1 9.9361650161e06 1.0479996362e06 0.0 1.911303e05 -3.614218828 29.5238594261 0.0
2 -7.0827945107e06 1.0733777473e06 0.0 1.815552e05 -5.4073158076 -34.7862560469 0.0
3 1.0019039468e07 8.3232686719e05 0.0 1.0e05 0.519437348 18.8935796956 0.0
ITEM: TIMESTEP
8
ITEM: NUMBER OF ATOMS
4
ITEM: BOX BOUNDS ff ff ff
0.0 4.0
0.0 2.0
0.0 2.0
ITEM: ATOMS id x y z radius fx fy fz
0 -0.0392637792 0.0284225556 0.0 6.957e05 -3.4454794824e-06 2.3564156939e-06 0.0
1 9.925389566e06 1.1329886361e06 0.0 1.911303e05 -3.8687048856 29.4959143722 0.0
2 -7.0976581716e06 9.7308924206e05 0.0 1.815552e05 -4.9145120465 -34.857375597 0.0
3 1.0020172155e07 8.8671136489e05 0.0 1.0e05 0.2672389111 18.8731590064 0.0
ITEM: TIMESTEP
9
ITEM: NUMBER OF ATOMS
4
ITEM: BOX BOUNDS ff ff ff
0.0 4.0
0.0 2.0
0.0 2.0
ITEM: ATOMS id x y z radius fx fy fz
0 -0.0498268841 0.0355679953 0.0 6.957e05 -3.8904512955e-06 2.603937636e-06 0.0
1 9.9138814448e06 1.2178940008e06 0.0 1.911303e05 -4.1230150414 29.4657794724 0.0
2 -7.1111012325e06 8.7260597206e05 0.0 1.815552e05 -4.4208045351 -34.9215074721 0.0
3 1.002057924e07 9.4103474034e05 0.0 1.0e05 0.0155376426 18.851150502 0.0
ITEM: TIMESTEP
10
ITEM: NUMBER OF ATOMS
4
ITEM: BOX BOUNDS ff ff ff
0.0 4.0
0.0 2.0
0.0 2.0
ITEM: ATOMS id x y z radius fx fy fz
0 -0.0616752308 0.0434111006 0.0 6.957e05 -4.3379774226e-06 2.8409014991e-06 0.0
1 9.9016411862e06 1.3027094239e06 0.0 1.911303e05 -4.3771305414 29.4334550399 0.0
2 -7.1231212334e06 7.719480774e05 0.0 1.815552e05 -3.9262925187 -34.9786410839 0.0
3 1.0020262086e07 9.9529254586e05 0.0 1.0e05 -0.2357115526 18.8276349235 0.0
ITEM: TIMESTEP
11
ITEM: NUMBER OF ATOMS
4
ITEM: BOX BOUNDS ff ff ff
0.0 4.0
0.0 2.0
0.0 2.0
ITEM: ATOMS id x y z radius fx fy fz
0 -0.0748159068 0.0519214291 0.0 6.957e05 -4.7878710205e-06 3.0672834029e-06 0.0
1 9.8886693778e06 1.3874286003e06 0.0 1.911303e05 -4.6310326132 29.3989415466 0.0
2 -7.1337160004e06 6.711357266e05 0.0 1.815552e05 -3.4310753402 -35.0287672575 0.0
3 1.0019221943e07 1.0494805212e06 0.0 1.0e05 -0.4865429001 18.8026643258 0.0
ITEM: TIMESTEP
12
ITEM: NUMBER OF ATOMS
4
ITEM: BOX BOUNDS ff ff ff
0.0 4.0
0.0 2.0
0.0 2.0
ITEM: ATOMS id x y z radius fx fy fz
0 -0.0892554612 0.0610684741 0.0 6.957e05 -5.2399451087e-06 3.2830624507e-06 0.0
1 9.8749666613e06 1.4720452263e06 0.0 1.911303e05 -4.8847024672 29.3622396235 0.0
2 -7.1428836459e06 5.7018911263e05 0.0 1.815552e05 -2.9352524195 -35.0718782318 0.0
3 1.0017459973e07 1.1035945296e06 0.0 1.0e05 -0.7369842217 18.7762738353 0.0
ITEM: TIMESTEP
13
ITEM: NUMBER OF ATOMS
4
ITEM: BOX BOUNDS ff ff ff
0.0 4.0
0.0 2.0
0.0 2.0
ITEM: ATOMS id x y z radius fx fy fz
0 -0.1049999043 0.0708216728 0.0 6.957e05 -5.6940126154e-06 3.488220727e-06 0.0
1 9.8605337326e06 1.5565530004e06 0.0 1.911303e05 -5.1381212977 29.3233500613 0.0
2 -7.1506225684e06 4.6912844872e05 0.0 1.815552e05 -2.4389232334 -35.1079676594 0.0
3 1.0014977265e07 1.1576305192e06 0.0 1.0e05 -0.9870593502 18.7484879887 0.0
ITEM: TIMESTEP
14
ITEM: NUMBER OF ATOMS
4
ITEM: BOX BOUNDS ff ff ff
0.0 4.0
0.0 2.0
0.0 2.0
ITEM: ATOMS id x y z radius fx fy fz
0 -0.1220547079 0.0811504151 0.0 6.957e05 -6.1498864225e-06 3.6827432948e-06 0.0
1 9.8453713417e06 1.6409456234e06 0.0 1.911303e05 -5.3912702844 29.2822738108 0.0
2 -7.1569314532e06 3.6797396438e05 0.0 1.815552e05 -1.9421872957 -35.1370306056 0.0
3 1.0011774842e07 1.2115844979e06 0.0 1.0e05 -1.2367895151 18.7193243605 0.0
ITEM: TIMESTEP
15
ITEM: NUMBER OF ATOMS
4
ITEM: BOX BOUNDS ff ff ff
0.0 4.0
0.0 2.0
0.0 2.0
ITEM: ATOMS id x y z radius fx fy fz
0 -0.1404248045 0.0920240523 0.0 6.957e05 -6.6073794114e-06 3.8666181917e-06 0.0
1 9.8294802929e06 1.7252167994e06 0.0 1.911303e05 -5.6441305939 29.2390119835 0.0
2 -7.1618092722e06 2.6674590128e05 0.0 1.815552e05 -1.4451441366 -35.159063548 0.0
3 1.000785367e07 1.2654525172e06 0.0 1.0e05 -1.4861941778 18.6887957412 0.0
ITEM: TIMESTEP
16
ITEM: NUMBER OF ATOMS
4
ITEM: BOX BOUNDS ff ff ff
0.0 4.0
0.0 2.0
0.0 2.0
ITEM: ATOMS id x y z radius fx fy fz
0 -0.1601145881 0.1034119054 0.0 6.957e05 -7.0663045073e-06 4.0398364263e-06 0.0
1 9.8128614447e06 1.8093602355e06 0.0 1.911303e05 -5.8966833804 29.1935658519 0.0
2 -7.165255284e06 1.6546450922e05 0.0 1.815552e05 -0.9478932833 -35.1740643752 0.0
3 1.0003214659e07 1.3192306601e06 0.0 1.0e05 -1.7352915562 18.6569115009 0.0
ITEM: TIMESTEP
17
ITEM: NUMBER OF ATOMS
4
ITEM: BOX BOUNDS ff ff ff
0.0 4.0
0.0 2.0
0.0 2.0
ITEM: ATOMS id x y z radius fx fy fz
0 -0.1811279138 0.1152832739 0.0 6.957e05 -7.5264747252e-06 4.2023919724e-06 0.0
1 9.7955157099e06 1.8933696431e06 0.0 1.911303e05 -6.1489097879 29.1459368503 0.0
2 -7.1672690337e06 64150.0420286877 0.0 1.815552e05 -0.4505342391 -35.1820323851 0.0
3 9.9978586689e06 1.3729150327e06 0.0 1.0e05 -1.9840989657 18.6236784718 0.0
ITEM: TIMESTEP
18
ITEM: NUMBER OF ATOMS
4
ITEM: BOX BOUNDS ff ff ff
0.0 4.0
0.0 2.0
0.0 2.0
ITEM: ATOMS id x y z radius fx fy fz
0 -0.2034680985 0.127607444 0.0 6.957e05 -7.9877032136e-06 4.3542817645e-06 0.0
1 9.7774440557e06 1.9772387378e06 0.0 1.911303e05 -6.4007909508 29.0961265749 0.0
2 -7.1678503529e06 -37177.2464495646 0.0 1.815552e05 0.0468335357 -35.1829682838 0.0
3 9.9917865111e06 1.426501758e06 0.0 1.0e05 -2.232633049 18.5891015373 0.0
ITEM: TIMESTEP
19
ITEM: NUMBER OF ATOMS
4
ITEM: BOX BOUNDS ff ff ff
0.0 4.0
0.0 2.0
0.0 2.0
ITEM: ATOMS id x y z radius fx fy fz
0 -0.227137921 0.1403536975 0.0 6.957e05 -8.4498033001e-06 4.4955056906e-06 0.0
1 9.7586475036e06 2.0609612399e06 0.0 1.911303e05 -6.6523079957 29.0441367845 0.0
2 -7.1669993596e06 -1.3849710644e05 0.0 1.815552e05 0.5441106441 -35.1768741831 0.0
3 9.9849989494e06 1.4799869706e06 0.0 1.0e05 -2.4809099339 18.5531840355 0.0
ITEM: TIMESTEP
20
ITEM: NUMBER OF ATOMS
4
ITEM: BOX BOUNDS ff ff ff
0.0 4.0
0.0 2.0
0.0 2.0
ITEM: ATOMS id x y z radius fx fy fz
0 -0.2521396232 0.1534913202 0.0 6.957e05 -8.9125885352e-06 4.6260665859e-06 0.0
1 9.7391271294e06 2.1445308751e06 0.0 1.911303e05 -6.9034420426 28.9899694009 0.0
2 -7.164716458e06 -2.3978929627e05 0.0 1.815552e05 1.0411977723 -35.1637535985 0.0
3 9.9774967017e06 1.5333668131e06 0.0 1.0e05 -2.7289453457 18.5159280411 0.0
ITEM: TIMESTEP
21
ITEM: NUMBER OF ATOMS
4
ITEM: BOX BOUNDS ff ff ff
0.0 4.0
0.0 2.0
0.0 2.0
ITEM: ATOMS id x y z radius fx fy fz
0 -0.27847491 0.16698961 0.0 6.957e05 -9.3758727367e-06 4.7459702252e-06 0.0
1 9.7188840633e06 2.2279413751e06 0.0 1.911303e05 -7.1541742065 28.9336265094 0.0
2 -7.161002338e06 -3.4103358642e05 0.0 1.815552e05 1.5379957093 -35.1436114466 0.0
3 9.9692804412e06 1.5866374322e06 0.0 1.0e05 -2.976754688 18.4773345672 0.0
ITEM: TIMESTEP
22
ITEM: NUMBER OF ATOMS
4
ITEM: BOX BOUNDS ff ff ff
0.0 4.0
0.0 2.0
0.0 2.0
ITEM: ATOMS id x y z radius fx fy fz
0 -0.3061449507 0.180817886 0.0 6.957e05 -9.8394700338e-06 4.8552253146e-06 0.0
1 9.6979194899e06 2.3111864775e06 0.0 1.911303e05 -7.4044855984 28.875110359 0.0
2 -7.1558579754e06 -4.4220976352e05 0.0 1.815552e05 2.0344053667 -35.1164540422 0.0
3 9.9603507972e06 1.6397949763e06 0.0 1.0e05 -3.2243531031 18.4374037116 0.0
ITEM: TIMESTEP
23
ITEM: NUMBER OF ATOMS
4
ITEM: BOX BOUNDS ff ff ff
0.0 4.0
0.0 2.0
0.0 2.0
ITEM: ATOMS id x y z radius fx fy fz
0 -0.3351503799 0.1949454963 0.0 6.957e05 -1.0303194911e-05 4.9538434828e-06 0.0
1 9.6762346483e06 2.3942599268e06 0.0 1.911303e05 -7.6543573272 28.814423363 0.0
2 -7.1492846309e06 -5.4329763442e05 0.0 1.815552e05 2.5303277982 -35.0822890955 0.0
3 9.9507083555e06 1.692835593e06 0.0 1.0e05 -3.471755517 18.3961347643 0.0
ITEM: TIMESTEP
24
ITEM: NUMBER OF ATOMS
4
ITEM: BOX BOUNDS ff ff ff
0.0 4.0
0.0 2.0
0.0 2.0
ITEM: ATOMS id x y z radius fx fy fz
0 -0.3654912982 0.2093418268 0.0 6.957e05 -1.076686225e-05 5.0418392715e-06 0.0
1 9.6538308319e06 2.4771554745e06 0.0 1.911303e05 -7.9037705007 28.7515680993 0.0
2 -7.1412838499e06 -6.4427703016e05 0.0 1.815552e05 3.0256642192 -35.0411257082 0.0
3 9.9403536594e06 1.7457554266e06 0.0 1.0e05 -3.7189766748 18.3535262883 0.0
ITEM: TIMESTEP
25
ITEM: NUMBER OF ATOMS
4
ITEM: BOX BOUNDS ff ff ff
0.0 4.0
0.0 2.0
0.0 2.0
ITEM: ATOMS id x y z radius fx fy fz
0 -0.3971672739 0.2239763096 0.0 6.957e05 -1.1230287378e-05 5.1192301258e-06 0.0
1 9.6307093885e06 2.5598668801e06 0.0 1.911303e05 -8.1527062272 28.6865473111 0.0
2 -7.1318574622e06 -7.4512781002e05 0.0 1.815552e05 3.5203160263 -34.9929743704 0.0
3 9.9292872099e06 1.7985506165e06 0.0 1.0e05 -3.9660311673 18.3095761799 0.0
ITEM: TIMESTEP
26
ITEM: NUMBER OF ATOMS
4
ITEM: BOX BOUNDS ff ff ff
0.0 4.0
0.0 2.0
0.0 2.0
ITEM: ATOMS id x y z radius fx fy fz
0 -0.4301773441 0.2388184311 0.0 6.957e05 -1.1693286104e-05 5.1860363829e-06 0.0
1 9.6068717205e06 2.6423879109e06 0.0 1.911303e05 -8.4011456169 28.6193639066 0.0
2 -7.1210075813e06 -8.4582986546e05 0.0 1.815552e05 4.0141848166 -34.9378469567 0.0
3 9.917509466e06 1.8512172949e06 0.0 1.0e05 -4.2129334535 18.2642817147 0.0
ITEM: TIMESTEP
27
ITEM: NUMBER OF ATOMS
4
ITEM: BOX BOUNDS ff ff ff
0.0 4.0
0.0 2.0
0.0 2.0
ITEM: ATOMS id x y z radius fx fy fz
0 -0.4645200162 0.2538377402 0.0 6.957e05 -1.2155674766e-05 5.2422812611e-06 0.0
1 9.5823192844e06 2.724712343e06 0.0 1.911303e05 -8.6490697836 28.5500209603 0.0
2 -7.1087366036e06 -9.4636312414e05 0.0 1.815552e05 4.5071724069 -34.8757567214 0.0
3 9.9050208455e06 1.9037515854e06 0.0 1.0e05 -4.4596978778 18.2176395829 0.0
ITEM: TIMESTEP
28
ITEM: NUMBER OF ATOMS
4
ITEM: BOX BOUNDS ff ff ff
0.0 4.0
0.0 2.0
0.0 2.0
ITEM: ATOMS id x y z radius fx fy fz
0 -0.5001932693 0.2690038571 0.0 6.957e05 -1.2617270273e-05 5.2879908483e-06 0.0
1 9.5570535913e06 2.8068339616e06 0.0 1.911303e05 -8.8964598457 28.4785217124 0.0
2 -7.0950472082e06 -1.0467075539e06 0.0 1.815552e05 4.9991808531 -34.806718295 0.0
3 9.8918217249e06 1.9561496014e06 0.0 1.0e05 -4.7063386851 18.1696459161 0.0
ITEM: TIMESTEP
29
ITEM: NUMBER OF ATOMS
4
ITEM: BOX BOUNDS ff ff ff
0.0 4.0
0.0 2.0
0.0 2.0
ITEM: ATOMS id x y z radius fx fy fz
0 -0.5371945563 0.2842864813 0.0 6.957e05 -1.3077890147e-05 5.3231940886e-06 0.0
1 9.5310762066e06 2.8887465613e06 0.0 1.911303e05 -9.1432969279 28.4048695699 0.0
2 -7.0799423557e06 -1.1468431666e06 0.0 1.815552e05 5.4901124692 -34.7307476786 0.0
3 9.8779124398e06 2.0084074442e06 0.0 1.0e05 -4.9528700326 18.1202963074 0.0
ITEM: TIMESTEP
30
ITEM: NUMBER OF ATOMS
4
ITEM: BOX BOUNDS ff ff ff
0.0 4.0
0.0 2.0
0.0 2.0
ITEM: ATOMS id x y z radius fx fy fz
0 -0.5755208054 0.2996553994 0.0 6.957e05 -1.3537352564e-05 5.34792277e-06 0.0
1 9.50438875e06 2.970443947e06 0.0 1.911303e05 -9.3895621628 28.3290681063 0.0
2 -7.0634252876e06 -1.2467500222e06 0.0 1.815552e05 5.9798698461 -34.6478622397 0.0
3 9.8632932851e06 2.0605212017e06 0.0 1.0e05 -5.1993060001 18.0695858275 0.0
ITEM: TIMESTEP
31
ITEM: NUMBER OF ATOMS
4
ITEM: BOX BOUNDS ff ff ff
0.0 4.0
0.0 2.0
0.0 2.0
ITEM: ATOMS id x y z radius fx fy fz
0 -0.615168422 0.315080494 0.0 6.957e05 -1.3995476397e-05 5.3622115105e-06 0.0
1 9.4769928956e06 3.0519199339e06 0.0 1.911303e05 -9.6352366923 28.2511210627 0.0
2 -7.0454995259e06 -1.3464082328e06 0.0 1.815552e05 6.4683558707 -34.5580807065 0.0
3 9.8479645153e06 2.1124869469e06 0.0 1.0e05 -5.4456605998 18.0175090362 0.0
ITEM: TIMESTEP
32
ITEM: NUMBER OF ATOMS
4
ITEM: BOX BOUNDS ff ff ff
0.0 4.0
0.0 2.0
0.0 2.0
ITEM: ATOMS id x y z radius fx fy fz
0 -0.6561332912 0.3305317512 0.0 6.957e05 -1.4452081258e-05 5.3660977436e-06 0.0
1 9.4488903718e06 3.1331683483e06 0.0 1.911303e05 -9.8803016688 28.1710323472 0.0
2 -7.0261688713e06 -1.4457979661e06 0.0 1.815552e05 6.9554737445 -34.4614231629 0.0
3 9.8319263447e06 2.1643007364e06 0.0 1.0e05 -5.691947783 17.9640599904 0.0
ITEM: TIMESTEP
33
ITEM: NUMBER OF ATOMS
4
ITEM: BOX BOUNDS ff ff ff
0.0 4.0
0.0 2.0
0.0 2.0
ITEM: ATOMS id x y z radius fx fy fz
0 -0.6984107794 0.3459792691 0.0 6.957e05 -1.4906987538e-05 5.3596217036e-06 0.0
1 9.4200829612e06 3.2141830281e06 0.0 1.911303e05 -10.1247382572 28.0888060359 0.0
2 -7.0054374031e06 -1.5448994498e06 0.0 1.815552e05 7.4411270025 -34.3579110421 0.0
3 9.8151789475e06 2.215958609e06 0.0 1.0e05 -5.9381814481 17.9092322508 0.0
ITEM: TIMESTEP
34
ITEM: NUMBER OF ATOMS
4
ITEM: BOX BOUNDS ff ff ff
0.0 4.0
0.0 2.0
0.0 2.0
ITEM: ATOMS id x y z radius fx fy fz
0 -0.7419957371 0.3613932657 0.0 6.957e05 -1.5360016447e-05 5.3428264105e-06 0.0
1 9.3905725007e06 3.294957823e06 0.0 1.911303e05 -10.3685276361 28.0044463726 0.0
2 -6.983309478e06 -1.6436929751e06 0.0 1.815552e05 7.9252195314 -34.2475671216 0.0
3 9.7977224577e06 2.267456584e06 0.0 1.0e05 -6.1843754461 17.853018885 0.0
ITEM: TIMESTEP
35
ITEM: NUMBER OF ATOMS
4
ITEM: BOX BOUNDS ff ff ff
0.0 4.0
0.0 2.0
0.0 2.0
ITEM: ATOMS id x y z radius fx fy fz
0 -0.786882501 0.3767440867 0.0 6.957e05 -1.5810990058e-05 5.3157576535e-06 0.0
1 9.3603608814e06 3.3754865954e06 0.0 1.911303e05 -10.6116509995 27.9179577699 0.0
2 -6.9597897289e06 -1.742158901e06 0.0 1.815552e05 8.4076555885 -34.1304155159 0.0
3 9.7795569697e06 2.3187906604e06 0.0 1.0e05 -6.4305435867 17.7954124701 0.0
ITEM: TIMESTEP
36
ITEM: NUMBER OF ATOMS
4
ITEM: BOX BOUNDS ff ff ff
0.0 4.0
0.0 2.0
0.0 2.0
ITEM: ATOMS id x y z radius fx fy fz
0 -0.8330648968 0.3920022137 0.0 6.957e05 -1.6259731342e-05 5.2784639747e-06 0.0
1 9.3294500484e06 3.4557632204e06 0.0 1.911303e05 -10.854089558 27.8293448083 0.0
2 -6.9348830636e06 -1.8402776575e06 0.0 1.815552e05 8.8883398195 -34.0064816712 0.0
3 9.7606825382e06 2.3699568149e06 0.0 1.0e05 -6.6766996431 17.7364050928 0.0
ITEM: TIMESTEP
37
ITEM: NUMBER OF ATOMS
4
ITEM: BOX BOUNDS ff ff ff
0.0 4.0
0.0 2.0
0.0 2.0
ITEM: ATOMS id x y z radius fx fy fz
0 -0.8805362414 0.4071382724 0.0 6.957e05 -1.6706064214e-05 5.2309966522e-06 0.0
1 9.297842001e06 3.5357815867e06 0.0 1.911303e05 -11.0958245407 27.7386122375 0.0
2 -6.9085946644e06 -1.9380297501e06 0.0 1.815552e05 9.367177277 -33.8757923577 0.0
3 9.7410991782e06 2.4209510008e06 0.0 1.0e05 -6.9228573572 17.6759883491 0.0
ITEM: TIMESTEP
38
ITEM: NUMBER OF ATOMS
4
ITEM: BOX BOUNDS ff ff ff
0.0 4.0
0.0 2.0
0.0 2.0
ITEM: ATOMS id x y z radius fx fy fz
0 -0.9292893464 0.4221230395 0.0 6.957e05 -1.7149813567e-05 5.1734096822e-06 0.0
1 9.2655387925e06 3.6155355968e06 0.0 1.911303e05 -11.3368371967 27.645764976 0.0
2 -6.8809299862e06 -2.0353957631e06 0.0 1.815552e05 9.8440734385 -33.7383756633 0.0
3 9.7208068651e06 2.4717691463e06 0.0 1.0e05 -7.1690304437 17.6141533419 0.0
ITEM: TIMESTEP
39
ITEM: NUMBER OF ATOMS
4
ITEM: BOX BOUNDS ff ff ff
0.0 4.0
0.0 2.0
0.0 2.0
ITEM: ATOMS id x y z radius fx fy fz
0 -0.9793165202 0.4369274516 0.0 6.957e05 -1.7590805315e-05 5.1057597609e-06 0.0
1 9.2325425302e06 3.6950191677e06 0.0 1.911303e05 -11.5771087966 27.5508081115 0.0
2 -6.8518947554e06 -2.1323563638e06 0.0 1.815552e05 10.3189342245 -33.5942609862 0.0
3 9.6998055349e06 2.5224071535e06 0.0 1.0e05 -7.4152325943 17.5508906786 0.0
ITEM: TIMESTEP
40
ITEM: NUMBER OF ATOMS
4
ITEM: BOX BOUNDS ff ff ff
0.0 4.0
0.0 2.0
0.0 2.0
ITEM: ATOMS id x y z radius fx fy fz
0 -1.0306095716 0.4515226122 0.0 6.957e05 -1.802886643e-05 5.0281062661e-06 0.0
1 9.1988553752e06 3.7742262313e06 0.0 1.911303e05 -11.8166206337 27.453746901 0.0
2 -6.8214949689e06 -2.2288923058e06 0.0 1.815552e05 10.7916660158 -33.4434790278 0.0
3 9.6780950843e06 2.5728608966e06 0.0 1.0e05 -7.6614774817 17.4861904669 0.0
ITEM: TIMESTEP
41
ITEM: NUMBER OF ATOMS
4
ITEM: BOX BOUNDS ff ff ff
0.0 4.0
0.0 2.0
0.0 2.0
ITEM: ATOMS id x y z radius fx fy fz
0 -1.0831598124 0.4658797998 0.0 6.957e05 -1.8463824981e-05 4.9405112376e-06 0.0
1 9.1644795426e06 3.8531507349e06 0.0 1.911303e05 -12.0553540265 27.3545867713 0.0
2 -6.7897368924e06 -2.3249844331e06 0.0 1.815552e05 11.2621756716 -33.2860617844 0.0
3 9.6556753705e06 2.6231262206e06 0.0 1.0e05 -7.9077787631 17.4200423105 0.0
ITEM: TIMESTEP
42
ITEM: NUMBER OF ATOMS
4
ITEM: BOX BOUNDS ff ff ff
0.0 4.0
0.0 2.0
0.0 2.0
ITEM: ATOMS id x y z radius fx fy fz
0 -1.136958061 0.4799704751 0.0 6.957e05 -1.8895510173e-05 4.8430393578e-06 0.0
1 9.1294173012e06 3.9317866415e06 0.0 1.911303e05 -12.2932903191 27.2533333186 0.0
2 -6.7566270592e06 -2.4206136837e06 0.0 1.815552e05 11.7303705472 -33.1220425401 0.0
3 9.6325462114e06 2.6731989398e06 0.0 1.0e05 -8.1541500838 17.3524353035 0.0
ITEM: TIMESTEP
43
ITEM: NUMBER OF ATOMS
4
ITEM: BOX BOUNDS ff ff ff
0.0 4.0
0.0 2.0
0.0 2.0
ITEM: ATOMS id x y z radius fx fy fz
0 -1.1919946457 0.4937662892 0.0 6.957e05 -1.9323752383e-05 4.7357579311e-06 0.0
1 9.0936709735e06 4.0101279307e06 0.0 1.911303e05 -12.530410884 27.1499923091 0.0
2 -6.7221722687e06 -2.5157610933e06 0.0 1.815552e05 12.1961585108 -32.9514558583 0.0
3 9.6087073857e06 2.7230748365e06 0.0 1.0e05 -8.4006050808 17.2833580239 0.0
ITEM: TIMESTEP
44
ITEM: NUMBER OF ATOMS
4
ITEM: BOX BOUNDS ff ff ff
0.0 4.0
0.0 2.0
0.0 2.0
ITEM: ATOMS id x y z radius fx fy fz
0 -1.2482594078 0.5072390906 0.0 6.957e05 -1.9748383199e-05 4.6187368636e-06 0.0
1 9.0572429355e06 4.0881685989e06 0.0 1.911303e05 -12.7666971225 27.0445696791 0.0
2 -6.6863795848e06 -2.6104077991e06 0.0 1.815552e05 12.6594479611 -32.7743375735 0.0
3 9.5841586327e06 2.7727496591e06 0.0 1.0e05 -8.6471573855 17.2127985275 0.0
ITEM: TIMESTEP
45
ITEM: NUMBER OF ATOMS
4
ITEM: BOX BOUNDS ff ff ff
0.0 4.0
0.0 2.0
0.0 2.0
ITEM: ATOMS id x y z radius fx fy fz
0 -1.3057417054 0.520360933 0.0 6.957e05 -2.0169235457e-05 4.4920486418e-06 0.0
1 9.0201356168e06 4.1659026596e06 0.0 1.911303e05 -13.0021304674 26.9370715347 0.0
2 -6.6492563344e06 -2.704535043e06 0.0 1.815552e05 13.1201478447 -32.5907247828 0.0
3 9.5588996526e06 2.8222191211e06 0.0 1.0e05 -8.8938206268 17.1407443397 0.0
ITEM: TIMESTEP
46
ITEM: NUMBER OF ATOMS
4
ITEM: BOX BOUNDS ff ff ff
0.0 4.0
0.0 2.0
0.0 2.0
ITEM: ATOMS id x y z radius fx fy fz
0 -1.3644304173 0.5331040823 0.0 6.957e05 -2.0586143276e-05 4.3557683105e-06 0.0
1 8.9823515006e06 4.2433241444e06 0.0 1.911303e05 -13.236692384 26.8275041526 0.0
2 -6.6108101061e06 -2.7981241759e06 0.0 1.815552e05 13.5781676723 -32.400655837 0.0
3 9.5329301063e06 2.8714788991e06 0.0 1.0e05 -9.1406084346 17.0671824476 0.0
ITEM: TIMESTEP
47
ITEM: NUMBER OF ATOMS
4
ITEM: BOX BOUNDS ff ff ff
0.0 4.0
0.0 2.0
0.0 2.0
ITEM: ATOMS id x y z radius fx fy fz
0 -1.424313946 0.5454410244 0.0 6.957e05 -2.0998942097e-05 4.2099734511e-06 0.0
1 8.943893123e06 4.3204271032e06 0.0 1.911303e05 -13.4703643716 26.7158739796 0.0
2 -6.5710487478e06 -2.8911566607e06 0.0 1.815552e05 14.0334175363 -32.204170332 0.0
3 9.5062496154e06 2.9205246316e06 0.0 1.0e05 -9.3875344419 16.9920992912 0.0
ITEM: TIMESTEP
48
ITEM: NUMBER OF ATOMS
4
ITEM: BOX BOUNDS ff ff ff
0.0 4.0
0.0 2.0
0.0 2.0
ITEM: ATOMS id x y z radius fx fy fz
0 -1.4853802224 0.5573444723 0.0 6.957e05 -2.1407468716e-05 4.0547441588e-06 0.0
1 8.9047630738e06 4.3972056046e06 0.0 1.911303e05 -13.7031279656 26.6021876326 0.0
2 -6.529980366e06 -2.9836140762e06 0.0 1.815552e05 14.485808127 -32.0013090991 0.0
3 9.4788577622e06 2.9693519171e06 0.0 1.0e05 -9.6346122877 16.9154807538 0.0
ITEM: TIMESTEP
49
ITEM: NUMBER OF ATOMS
4
ITEM: BOX BOUNDS ff ff ff
0.0 4.0
0.0 2.0
0.0 2.0
ITEM: ATOMS id x y z radius fx fy fz
0 -1.5476167091 0.5687873729 0.0 6.957e05 -2.1811561322e-05 3.8901630193e-06 0.0
1 8.8649639957e06 4.4736537366e06 0.0 1.911303e05 -13.934964739 26.4864518994 0.0
2 -6.4876133231e06 -3.0754781207e06 0.0 1.815552e05 14.9352507492 -31.7921141963 0.0
3 9.4507540897e06 3.0179563127e06 0.0 1.0e05 -9.8818556199 16.837312152 0.0
ITEM: TIMESTEP
50
ITEM: NUMBER OF ATOMS
4
ITEM: BOX BOUNDS ff ff ff
0.0 4.0
0.0 2.0
0.0 2.0
ITEM: ATOMS id x y z radius fx fy fz
0 -1.611010405 0.579742915 0.0 6.957e05 -2.221105953e-05 3.7163150856e-06 0.0
1 8.8244985843e06 4.5497656068e06 0.0 1.911303e05 -14.1658563038 26.368673738 0.0
2 -6.4439562363e06 -3.1667306152e06 0.0 1.815552e05 15.3816573387 -31.5766288981 0.0
3 9.4219381018e06 3.0663333324e06 0.0 1.0e05 -10.1292780971 16.7575782249 0.0
ITEM: TIMESTEP
51
ITEM: NUMBER OF ATOMS
4
ITEM: BOX BOUNDS ff ff ff
0.0 4.0
0.0 2.0
0.0 2.0
ITEM: ATOMS id x y z radius fx fy fz
0 -1.6755478488 0.5901845356 0.0 6.957e05 -2.2605804417e-05 3.5332878535e-06 0.0
1 8.7833695884e06 4.6255353434e06 0.0 1.911303e05 -14.3957843129 26.2488602768 0.0
2 -6.3990179754e06 -3.2573535071e06 0.0 1.815552e05 15.8249404781 -31.3548976861 0.0
3 9.3924092628e06 3.1144784454e06 0.0 1.0e05 -10.3768933918 16.676263123 0.0
ITEM: TIMESTEP
52
ITEM: NUMBER OF ATOMS
4
ITEM: BOX BOUNDS ff ff ff
0.0 4.0
0.0 2.0
0.0 2.0
ITEM: ATOMS id x y z radius fx fy fz
0 -1.741215124 0.6000859272 0.0 6.957e05 -2.2995638556e-05 3.3411712376e-06 0.0
1 8.7415798093e06 4.7009570951e06 0.0 1.911303e05 -14.6247304615 26.1270188147 0.0
2 -6.3528076609e06 -3.3473288736e06 0.0 1.815552e05 16.2650134134 -31.1269662386 0.0
3 9.3621669976e06 3.1623870743e06 0.0 1.0e05 -10.624715192 16.5933503956 0.0
ITEM: TIMESTEP
53
ITEM: NUMBER OF ATOMS
4
ITEM: BOX BOUNDS ff ff ff
0.0 4.0
0.0 2.0
0.0 2.0
ITEM: ATOMS id x y z radius fx fy fz
0 -1.8079978628 0.6094210447 0.0 6.957e05 -2.338040605e-05 3.1400575463e-06 0.0
1 8.6991321011e06 4.7760250321e06 0.0 1.911303e05 -14.8526764893 26.0031568211 0.0
2 -6.3053346625e06 -3.4366389253e06 0.0 1.815552e05 16.7017900694 -30.892881421 0.0
3 9.3312106919e06 3.2100545936e06 0.0 1.0e05 -10.8727572035 16.5088229787 0.0
ITEM: TIMESTEP
54
ITEM: NUMBER OF ATOMS
4
ITEM: BOX BOUNDS ff ff ff
0.0 4.0
0.0 2.0
0.0 2.0
ITEM: ATOMS id x y z radius fx fy fz
0 -1.8758812507 0.6181641123 0.0 6.957e05 -2.3759952565e-05 2.9300414561e-06 0.0
1 8.6560293703e06 4.850733346e06 0.0 1.911303e05 -15.0796041815 25.8772819359 0.0
2 -6.2566085966e06 -3.5252660094e06 0.0 1.815552e05 17.1351850657 -30.6526912749 0.0
3 9.2995396916e06 3.2574763276e06 0.0 1.0e05 -11.1210331523 16.4226631813 0.0
ITEM: TIMESTEP
55
ITEM: NUMBER OF ATOMS
4
ITEM: BOX BOUNDS ff ff ff
0.0 4.0
0.0 2.0
0.0 2.0
ITEM: ATOMS id x y z radius fx fy fz
0 -1.9448500308 0.6262896302 0.0 6.957e05 -2.4134125364e-05 2.7112199865e-06 0.0
1 8.612274576e06 4.9250762511e06 0.0 1.911303e05 -15.3054953708 25.7494019692 0.0
2 -6.2066393243e06 -3.6131926132e06 0.0 1.815552e05 17.565113732 -30.4064450079 0.0
3 9.2671533032e06 3.3046475488e06 0.0 1.0e05 -11.3695567861 16.3348526717 0.0
ITEM: TIMESTEP
56
ITEM: NUMBER OF ATOMS
4
ITEM: BOX BOUNDS ff ff ff
0.0 4.0
0.0 2.0
0.0 2.0
ITEM: ATOMS id x y z radius fx fy fz
0 -2.0148885089 0.6337723815 0.0 6.957e05 -2.4502773337e-05 2.4836924733e-06 0.0
1 8.5678707294e06 4.9990479842e06 0.0 1.911303e05 -15.5303319393 25.6195249014 0.0
2 -6.1554369498e06 -3.7004013671e06 0.0 1.815552e05 17.9914921238 -30.1541929826 0.0
3 9.2340507935e06 3.3515634761e06 0.0 1.0e05 -11.6183418762 16.2453724622 0.0
ITEM: TIMESTEP
57
ITEM: NUMBER OF ATOMS
4
ITEM: BOX BOUNDS ff ff ff
0.0 4.0
0.0 2.0
0.0 2.0
ITEM: ATOMS id x y z radius fx fy fz
0 -2.0859805579 0.6405874386 0.0 6.957e05 -2.4865747036e-05 2.2475605424e-06 0.0
1 8.5228208938e06 5.0726428052e06 0.0 1.911303e05 -15.7540958198 25.4876588833 0.0
2 -6.1030118178e06 -3.7868750486e06 0.0 1.815552e05 18.4142370372 -29.8959867057 0.0
3 9.2002313897e06 3.3982192725e06 0.0 1.0e05 -11.8674022197 16.1542028943 0.0
ITEM: TIMESTEP
58
ITEM: NUMBER OF ATOMS
4
ITEM: BOX BOUNDS ff ff ff
0.0 4.0
0.0 2.0
0.0 2.0
ITEM: ATOMS id x y z radius fx fy fz
0 -2.1581096226 0.6467101697 0.0 6.957e05 -2.5222898707e-05 2.0029280826e-06 0.0
1 8.4771281846e06 5.1458549979e06 0.0 1.911303e05 -15.9767689977 25.3538122357 0.0
2 -6.0493745117e06 -3.872596585e06 0.0 1.815552e05 18.8332660242 -29.6318788168 0.0
3 9.1656942792e06 3.4446100435e06 0.0 1.0e05 -12.1167516405 16.061323622 0.0
ITEM: TIMESTEP
59
ITEM: NUMBER OF ATOMS
4
ITEM: BOX BOUNDS ff ff ff
0.0 4.0
0.0 2.0
0.0 2.0
ITEM: ATOMS id x y z radius fx fy fz
0 -2.231258725 0.6521162456 0.0 6.957e05 -2.5574082318e-05 1.7499012185e-06 0.0
1 8.4307957687e06 5.2186788704e06 0.0 1.911303e05 -16.1983335126 25.2179934492 0.0
2 -5.9945358512e06 -3.9575490566e06 0.0 1.815552e05 19.2484974075 -29.3619230773 0.0
3 9.1304386095e06 3.490730835e06 0.0 1.0e05 -12.3664039909 15.9667135949 0.0
ITEM: TIMESTEP
60
ITEM: NUMBER OF ATOMS
4
ITEM: BOX BOUNDS ff ff ff
0.0 4.0
0.0 2.0
0.0 2.0
ITEM: ATOMS id x y z radius fx fy fz
0 -2.3054104689 0.656781646 0.0 6.957e05 -2.5919153591e-05 1.4885882826e-06 0.0
1 8.383826865e06 5.2911087552e06 0.0 1.911303e05 -16.4187714601 25.0802111846 0.0
2 -5.93850689e06 -4.0417157006e06 0.0 1.815552e05 19.6598502953 -29.0861743588 0.0
3 9.0944634881e06 3.5365766314e06 0.0 1.0e05 -12.6163731534 15.8703510405 0.0
ITEM: TIMESTEP
61
ITEM: NUMBER OF ATOMS
4
ITEM: BOX BOUNDS ff ff ff
0.0 4.0
0.0 2.0
0.0 2.0
ITEM: ATOMS id x y z radius fx fy fz
0 -2.380547045 0.6606826655 0.0 6.957e05 -2.6257970037e-05 1.2190997874e-06 0.0
1 8.3362247437e06 5.3631390103e06 0.0 1.911303e05 -16.6380649936 24.9404742721 0.0
2 -5.8812989138e06 -4.1250799134e06 0.0 1.815552e05 20.0672445956 -28.8046886314 0.0
3 9.0577679826e06 3.582142353e06 0.0 1.0e05 -12.8666730412 15.7722134458 0.0
ITEM: TIMESTEP
62
ITEM: NUMBER OF ATOMS
4
ITEM: BOX BOUNDS ff ff ff
0.0 4.0
0.0 2.0
0.0 2.0
ITEM: ATOMS id x y z radius fx fy fz
0 -2.4566502365 0.6637959203 0.0 6.957e05 -2.6590390979e-05 9.4154839662e-07 0.0
1 8.2879927264e06 5.4347640192e06 0.0 1.911303e05 -16.8561963258 24.7987917115 0.0
2 -5.8229234376e06 -4.2076252543e06 0.0 1.815552e05 20.4706010305 -28.5175229516 0.0
3 9.0203511205e06 3.6274228545e06 0.0 1.0e05 -13.1173175998 15.6722775373 0.0
ITEM: TIMESTEP
63
ITEM: NUMBER OF ATOMS
4
ITEM: BOX BOUNDS ff ff ff
0.0 4.0
0.0 2.0
0.0 2.0
ITEM: ATOMS id x y z radius fx fy fz
0 -2.533701424 0.666098354 0.0 6.957e05 -2.6916277585e-05 6.5604889676e-07 0.0
1 8.2391341856e06 5.5059781916e06 0.0 1.911303e05 -17.0731477305 24.655172672 0.0
2 -5.7633922035e06 -4.2893354486e06 0.0 1.815552e05 20.8698411507 -28.2247354509 0.0
3 8.9822118889e06 3.6724129222e06 0.0 1.0e05 -13.3683208077 15.570519261 0.0
ITEM: TIMESTEP
64
ITEM: NUMBER OF ATOMS
4
ITEM: BOX BOUNDS ff ff ff
0.0 4.0
0.0 2.0
0.0 2.0
ITEM: ATOMS id x y z radius fx fy fz
0 -2.6116815909 0.6675672439 0.0 6.957e05 -2.7235492897e-05 3.6271816768e-07 0.0
1 8.1896525452e06 5.5767759637e06 0.0 1.911303e05 -17.2889015443 24.5096264918 0.0
2 -5.7027171787e06 -4.3701943904e06 0.0 1.815552e05 21.264887349 -27.9263853233 0.0
3 8.9433492349e06 3.7171072721e06 0.0 1.0e05 -13.6196966772 15.4669137612 0.0
ITEM: TIMESTEP
65
ITEM: NUMBER OF ATOMS
4
ITEM: BOX BOUNDS ff ff ff
0.0 4.0
0.0 2.0
0.0 2.0
ITEM: ATOMS id x y z radius fx fy fz
0 -2.690571329 0.6681802068 0.0 6.957e05 -2.7547901859e-05 6.1675153187e-08 0.0
1 8.1395512793e06 5.6471517992e06 0.0 1.911303e05 -17.5034401684 24.362162678 0.0
2 -5.6409105523e06 -4.4501861457e06 0.0 1.815552e05 21.6556628746 -27.6225328125 0.0
3 8.9037620648e06 3.7615005475e06 0.0 1.0e05 -13.871459255 15.361435358 0.0
ITEM: TIMESTEP
66
ITEM: NUMBER OF ATOMS
4
ITEM: BOX BOUNDS ff ff ff
0.0 4.0
0.0 2.0
0.0 2.0
ITEM: ATOMS id x y z radius fx fy fz