ITEM: TIMESTEP
0
ITEM: NUMBER OF ATOMS
4
ITEM: BOX BOUNDS ff ff ff
0.0 4.0
0.0 2.0
0.0 2.0
ITEM: ATOMS id x y z radius fx fy fz
0 0.0 0.0 0.0 6.957e05 0.0 0.0 0.0
1 1.0009395964e07 -61587.3087258449 0.0 1.911303e05 -0.2949925999 29.6857913007 0.0
2 -6.7621301325e06 2.3503751168e06 0.0 1.815552e05 -11.6635307574 -33.2401568373 0.0
3 1.000887124e07 -61584.0801251132 0.0 1.0e05 0.089606258 14.5631386735 0.0
ITEM: TIMESTEP
1
ITEM: NUMBER OF ATOMS
4
ITEM: BOX BOUNDS ff ff ff
0.0 4.0
0.0 2.0
0.0 2.0
ITEM: ATOMS id x y z radius fx fy fz
0 -5.5993712767e-04 5.6560685036e-04 0.0 6.957e05 -3.8971910749e-07 3.9113774895e-07 0.0
1 1.0008179091e07 23908.9844469546 0.0 1.911303e05 -0.5500708898 29.6862713881 0.0
2 -6.7950418385e06 2.254410958e06 0.0 1.815552e05 -11.1914485027 -33.400502855 0.0
3 1.0017986285e07 -8202.6607907654 0.0 1.0e05 3.0296332862 18.7796163765 0.0
ITEM: TIMESTEP
2
ITEM: NUMBER OF ATOMS
4
ITEM: BOX BOUNDS ff ff ff
0.0 4.0
0.0 2.0
0.0 2.0
ITEM: ATOMS id x y z radius fx fy fz
0 -0.0022497295 0.0022434468 0.0 6.957e05 -7.8459176246e-07 7.7237281472e-07 0.0
1 1.0006227493e07 1.0940352206e05 0.0 1.911303e05 -0.805214322 29.6845718754 0.0
2 -6.8265907784e06 2.1579946701e06 0.0 1.815552e05 -10.7171814125 -33.5541304847 0.0
3 1.0026327289e07 45940.0980902842 0.0 1.0e05 2.7650390095 18.8119134448 0.0
ITEM: TIMESTEP
3
ITEM: NUMBER OF ATOMS
4
ITEM: BOX BOUNDS ff ff ff
0.0 4.0
0.0 2.0
0.0 2.0
ITEM: ATOMS id x y z radius fx fy fz
0 -0.0050839605 0.0050049038 0.0 6.957e05 -1.1844381565e-06 1.1436387597e-06 0.0
1 1.0003541011e07 1.9489002442e05 0.0 1.911303e05 -1.060404504 29.6806910875 0.0
2 -6.8567707981e06 2.0611456442e06 0.0 1.815552e05 -10.2408254902 -33.7010105359 0.0
3 1.0033919045e07 1.0013409049e05 0.0 1.0e05 2.5075449475 18.8211024597 0.0
ITEM: TIMESTEP
4
ITEM: NUMBER OF ATOMS
4
ITEM: BOX BOUNDS ff ff ff
0.0 4.0
0.0 2.0
0.0 2.0
ITEM: ATOMS id x y z radius fx fy fz
0 -0.0090766947 0.0088211746 0.0 6.957e05 -1.5890776878e-06 1.5048720379e-06 0.0
1 1.0000119536e07 2.8036220722e05 0.0 1.911303e05 -1.3156230097 29.6746274913 0.0
2 -6.8855760205e06 1.9638833538e06 0.0 1.815552e05 -9.7624771045 -33.8411151728 0.0
3 1.0040772728e07 1.543433079e05 0.0 1.0e05 2.2521912878 18.8234331939 0.0
ITEM: TIMESTEP
5
ITEM: NUMBER OF ATOMS
4
ITEM: BOX BOUNDS ff ff ff
0.0 4.0
0.0 2.0
0.0 2.0
ITEM: ATOMS id x y z radius fx fy fz
0 -0.0142414753 0.0136632771 0.0 6.957e05 -1.9983289851e-06 1.8560120431e-06 0.0
1 9.9959630132e06 3.6581378194e05 0.0 1.911303e05 -1.5708513801 29.666379705 0.0
2 -6.9130008463e06 1.8662273506e06 0.0 1.815552e05 -9.2822329788 -33.9744179466 0.0
3 1.0046892701e07 2.0855369435e05 0.0 1.0e05 1.9979327569 18.8221958683 0.0
ITEM: TIMESTEP
6
ITEM: NUMBER OF ATOMS
4
ITEM: BOX BOUNDS ff ff ff
0.0 4.0
0.0 2.0
0.0 2.0
ITEM: ATOMS id x y z radius fx fy fz
0 -0.0205913222 0.019502059 0.0 6.957e05 -2.4120099545e-06 2.1970011171e-06 0.0
1 9.9910714405e06 4.5123845631e05 0.0 1.911303e05 -1.8260711243 29.6559464992 0.0
2 -6.9390399557e06 1.7681972603e06 0.0 1.815552e05 -8.8001901707 -34.1008937986 0.0
3 1.0052281516e07 2.6275680978e05 0.0 1.0e05 1.7444044442 18.8184965495 0.0
ITEM: TIMESTEP
7
ITEM: NUMBER OF ATOMS
4
ITEM: BOX BOUNDS ff ff ff
0.0 4.0
0.0 2.0
0.0 2.0
ITEM: ATOMS id x y z radius fx fy fz
0 -0.0281387297 0.026308206 0.0 6.957e05 -2.8299378249e-06 2.5277845565e-06 0.0
1 9.9854448696e06 5.3662993474e05 0.0 1.911303e05 -2.0812637207 29.6433267966 0.0
2 -6.9636883085e06 1.6698127789e06 0.0 1.815552e05 -8.3164460517 -34.2205190647 0.0
3 1.0056941009e07 3.1694633691e05 0.0 1.0e05 1.4914395779 18.8128134963 0.0
ITEM: TIMESTEP
8
ITEM: NUMBER OF ATOMS
4
ITEM: BOX BOUNDS ff ff ff
0.0 4.0
0.0 2.0
0.0 2.0
ITEM: ATOMS id x y z radius fx fy fz
0 -0.036895665 0.0340522509 0.0 6.957e05 -3.2519291946e-06 2.8483106197e-06 0.0
1 9.9790834053e06 6.2198191873e05 0.0 1.911303e05 -2.3364106185 29.6285196736 0.0
2 -6.9869411454e06 1.5710936685e06 0.0 1.815552e05 -7.8310982875 -34.3332714782 0.0
3 1.006087266e07 3.7111694633e05 0.0 1.0e05 1.2389465941 18.8053884368 0.0
ITEM: TIMESTEP
9
ITEM: NUMBER OF ATOMS
4
ITEM: BOX BOUNDS ff ff ff
0.0 4.0
0.0 2.0
0.0 2.0
ITEM: ATOMS id x y z radius fx fy fz
0 -0.0468735662 0.0427045812 0.0 6.957e05 -3.677800077e-06 3.1585305329e-06 0.0
1 9.9719872061e06 7.0728810739e05 0.0 1.911303e05 -2.5914932385 29.6115243603 0.0
2 -7.0087939891e06 1.4720597532e06 0.0 1.815552e05 -7.3442448169 -34.4391301732 0.0
3 1.0064077739e07 4.2526383424e05 0.0 1.0e05 0.9868676674 18.7963574706 0.0
ITEM: TIMESTEP
10
ITEM: NUMBER OF ATOMS
4
ITEM: BOX BOUNDS ff ff ff
0.0 4.0
0.0 2.0
0.0 2.0
ITEM: ATOMS id x y z radius fx fy fz
0 -0.0580833406 0.0522354488 0.0 6.957e05 -4.1073659468e-06 3.4583984946e-06 0.0
1 9.9641564838e06 7.9254219779e05 0.0 1.911303e05 -2.8464929744 29.5923402411 0.0
2 -7.0292426444e06 1.3727309154e06 0.0 1.815552e05 -6.855983832 -34.5380756876 0.0
3 1.0066557376e07 4.7938250423e05 0.0 1.0e05 0.7351619837 18.7858035678 0.0
ITEM: TIMESTEP
11
ITEM: NUMBER OF ATOMS
4
ITEM: BOX BOUNDS ff ff ff
0.0 4.0
0.0 2.0
0.0 2.0
ITEM: ATOMS id x y z radius fx fy fz
0 -0.0705353636 0.0626149775 0.0 6.957e05 -4.5404417867e-06 3.7478716805e-06 0.0
1 9.955591504e06 8.7773788548e05 0.0 1.911303e05 -3.1013911941 29.5709668555 0.0
2 -7.0482831992e06 1.2731270913e06 0.0 1.815552e05 -6.3664137577 -34.6300899652 0.0
3 1.00683126e07 5.334686529e05 0.0 1.0e05 0.4837980881 18.7737804815 0.0
ITEM: TIMESTEP
12
ITEM: NUMBER OF ATOMS
4
ITEM: BOX BOUNDS ff ff ff
0.0 4.0
0.0 2.0
0.0 2.0
ITEM: ATOMS id x y z radius fx fy fz
0 -0.0842394769 0.0738131723 0.0 6.957e05 -4.9768421325e-06 4.0269102472e-06 0.0
1 9.9462925859e06 9.6286886488e05 0.0 1.911303e05 -3.356169241 29.5474038986 0.0
2 -7.0659120256e06 1.1732682672e06 0.0 1.815552e05 -5.8756332316 -34.7151563583 0.0
3 1.0069344356e07 5.8751810478e05 0.0 1.0e05 0.2327500385 18.7603247235 0.0
ITEM: TIMESTEP
13
ITEM: NUMBER OF ATOMS
4
ITEM: BOX BOUNDS ff ff ff
0.0 4.0
0.0 2.0
0.0 2.0
ITEM: ATOMS id x y z radius fx fy fz
0 -0.0992049874 0.0857999278 0.0 6.957e05 -5.4163811203e-06 4.2954773349e-06 0.0
1 9.9362601025e06 1.0479288298e06 0.0 1.911303e05 -3.6108084349 29.5216512217 0.0
2 -7.0821257795e06 1.0731744753e06 0.0 1.815552e05 -5.3837410832 -34.7932596292 0.0
3 1.0069653521e07 6.4152677287e05 0.0 1.0e05 -0.0180046756 18.7454620226 0.0
ITEM: TIMESTEP
14
ITEM: NUMBER OF ATOMS
4
ITEM: BOX BOUNDS ff ff ff
0.0 4.0
0.0 2.0
0.0 2.0
ITEM: ATOMS id x y z radius fx fy fz
0 -0.1154406665 0.0985450365 0.0 6.957e05 -5.8588725316e-06 4.55353907e-06 0.0
1 9.9254944806e06 1.1329114738e06 0.0 1.911303e05 -3.8652900735 29.4937088328 0.0
2 -7.0969214021e06 9.7286578967e05 0.0 1.815552e05 -4.890836314 -34.8643859524 0.0
3 1.0069240911e07 6.9549063341e05 0.0 1.0e05 -0.268486328 18.7292110194 0.0
ITEM: TIMESTEP
15
ITEM: NUMBER OF ATOMS
4
ITEM: BOX BOUNDS ff ff ff
0.0 4.0
0.0 2.0
0.0 2.0
ITEM: ATOMS id x y z radius fx fy fz
0 -0.1329547485 0.1120181979 0.0 6.957e05 -6.3041298398e-06 4.8010645666e-06 0.0
1 9.9139962009e06 1.2178104907e06 0.0 1.911303e05 -4.1195954339 29.4635768969 0.0
2 -7.1102961197e06 8.7236232207e05 0.0 1.815552e05 -4.3970180769 -34.9285229153 0.0
3 1.0068107284e07 7.494057089e05 0.0 1.0e05 -0.5187136757 18.7115854863 0.0
ITEM: TIMESTEP
16
ITEM: NUMBER OF ATOMS
4
ITEM: BOX BOUNDS ff ff ff
0.0 4.0
0.0 2.0
0.0 2.0
ITEM: ATOMS id x y z radius fx fy fz
0 -0.1517549303 0.1261890268 0.0 6.957e05 -6.7519662562e-06 5.0380259274e-06 0.0
1 9.9017657981e06 1.3026195751e06 0.0 1.911303e05 -4.3737057731 29.4312557372 0.0
2 -7.1222474446e06 7.7168421806e05 0.0 1.815552e05 -3.902385656 -34.9856595198 0.0
3 1.0066253347e07 8.0326805623e05 0.0 1.0e05 -0.7687044122 18.6925957163 0.0
ITEM: TIMESTEP
17
ITEM: NUMBER OF ATOMS
4
ITEM: BOX BOUNDS ff ff ff
0.0 4.0
0.0 2.0
0.0 2.0
ITEM: ATOMS id x y z radius fx fy fz
0 -0.1718483705 0.1410270617 0.0 6.957e05 -7.2021947756e-06 5.2643982438e-06 0.0
1 9.8888038609e06 1.3873324226e06 0.0 1.911303e05 -4.6276023302 29.3967458349 0.0
2 -7.1327731749e06 6.7085165283e05 0.0 1.815552e05 -3.4070384464 -35.0357861826 0.0
3 1.0063679758e07 8.5707375803e05 0.0 1.0e05 -1.0184754618 18.6722494226 0.0
ITEM: TIMESTEP
18
ITEM: NUMBER OF ATOMS
4
ITEM: BOX BOUNDS ff ff ff
0.0 4.0
0.0 2.0
0.0 2.0
ITEM: ATOMS id x y z radius fx fy fz
0 -0.1932416889 0.156501774 0.0 6.957e05 -7.6546282223e-06 5.4801595955e-06 0.0
1 9.8751110319e06 1.4719427305e06 0.0 1.911303e05 -4.8812663269 29.3600478302 0.0
2 -7.1418713954e06 5.6988482708e05 0.0 1.815552e05 -2.9110759337 -35.0788947358 0.0
3 1.0060387124e07 9.1081891619e05 0.0 1.0e05 -1.2680431786 18.6505523388 0.0
ITEM: TIMESTEP
19
ITEM: NUMBER OF ATOMS
4
ITEM: BOX BOUNDS ff ff ff
0.0 4.0
0.0 2.0
0.0 2.0
ITEM: ATOMS id x y z radius fx fy fz
0 -0.215940966 0.1725825762 0.0 6.957e05 -8.1090792955e-06 5.6852910492e-06 0.0
1 9.8606880081e06 1.5564441982e06 0.0 1.911303e05 -5.1346789693 29.3211625226 0.0
2 -7.1495404772e06 4.6880396306e05 0.0 1.815552e05 -2.4145976738 -35.114978427 0.0
3 1.0056376009e07 9.6449964678e05 0.0 1.0e05 -1.5174234828 18.6275086302 0.0
ITEM: TIMESTEP
20
ITEM: NUMBER OF ATOMS
4
ITEM: BOX BOUNDS ff ff ff
0.0 4.0
0.0 2.0
0.0 2.0
ITEM: ATOMS id x y z radius fx fy fz
0 -0.2399517427 0.1892388304 0.0 6.957e05 -8.5653606155e-06 5.879776657e-06 0.0
1 9.8455355404e06 1.6408305277e06 0.0 1.911303e05 -5.3878214491 29.2800908716 0.0
2 -7.1557790785e06 3.6762930038e05 0.0 1.815552e05 -1.9177032729 -35.1440319193 0.0
3 1.005164693e07 1.0181120759e06 0.0 1.0e05 -1.7666319584 18.6031211815 0.0
ITEM: TIMESTEP
21
ITEM: NUMBER OF ATOMS
4
ITEM: BOX BOUNDS ff ff ff
0.0 4.0
0.0 2.0
0.0 2.0
ITEM: ATOMS id x y z radius fx fy fz
0 -0.2652790203 0.2064398572 0.0 6.957e05 -9.0232847685e-06 6.0636034535e-06 0.0
1 9.829654434e06 1.7250954238e06 0.0 1.911303e05 -5.6406749446 29.2368339968 0.0
2 -7.1605861442e06 2.6638109201e05 0.0 1.815552e05 -1.4204923669 -35.1660512907 0.0
3 1.0046200359e07 1.0716523366e06 0.0 1.0e05 -2.0156839234 18.5773918021 0.0
ITEM: TIMESTEP
22
ITEM: NUMBER OF ATOMS
4
ITEM: BOX BOUNDS ff ff ff
0.0 4.0
0.0 2.0
0.0 2.0
ITEM: ATOMS id x y z radius fx fy fz
0 -0.2919272602 0.2241549441 0.0 6.957e05 -9.4826643525e-06 6.2367614528e-06 0.0
1 9.8130455483e06 1.809232595e06 0.0 1.911303e05 -5.8932206226 29.1913931788 0.0
2 -7.1639609063e06 1.6507960015e05 0.0 1.815552e05 -0.9230646016 -35.1810340334 0.0
3 1.0040036726e07 1.1251165653e06 0.0 1.0e05 -2.2645944825 18.5503213757 0.0
ITEM: TIMESTEP
23
ITEM: NUMBER OF ATOMS
4
ITEM: BOX BOUNDS ff ff ff
0.0 4.0
0.0 2.0
0.0 2.0
ITEM: ATOMS id x y z radius fx fy fz
0 -0.3199003843 0.2423533543 0.0 6.957e05 -9.943312022e-06 6.3992436442e-06 0.0
1 9.7957097968e06 1.8932357533e06 0.0 1.911303e05 -6.1454396392 29.1437698596 0.0
2 -7.1659028838e06 63745.0922329035 0.0 1.815552e05 -0.4255196125 -35.1889790529 0.0
3 1.0033156416e07 1.1785009004e06 0.0 1.0e05 -2.5133785664 18.5219099699 0.0
ITEM: TIMESTEP
24
ITEM: NUMBER OF ATOMS
4
ITEM: BOX BOUNDS ff ff ff
0.0 4.0
0.0 2.0
0.0 2.0
ITEM: ATOMS id x y z radius fx fy fz
0 -0.349201775 0.2610043347 0.0 6.957e05 -1.0405040534e-05 6.5510459883e-06 0.0
1 9.7776481476e06 1.9770986157e06 0.0 1.911303e05 -6.3973131415 29.0939656429 0.0
2 -7.1664118824e06 -37602.1632348453 0.0 1.815552e05 0.0720429956 -35.1898866663 0.0
3 1.0025559773e07 1.2318014788e06 0.0 1.0e05 -2.7620509627 18.492156919 0.0
ITEM: TIMESTEP
25
ITEM: NUMBER OF ATOMS
4
ITEM: BOX BOUNDS ff ff ff
0.0 4.0
0.0 2.0
0.0 2.0
ITEM: ATOMS id x y z radius fx fy fz
0 -0.3798342758 0.2800771254 0.0 6.957e05 -1.0867662791e-05 6.6921674112e-06 0.0
1 9.7588616229e06 2.0608149035e06 0.0 1.911303e05 -6.6488222688 29.0419822945 0.0
2 -7.1654879948e06 -1.3894190067e05 0.0 1.815552e05 0.569523668 -35.1837586014 0.0
3 1.0017247096e07 1.285014435e06 0.0 1.0e05 -3.0106263399 18.4610608852 0.0
ITEM: TIMESTEP
26
ITEM: NUMBER OF ATOMS
4
ITEM: BOX BOUNDS ff ff ff
0.0 4.0
0.0 2.0
0.0 2.0
ITEM: ATOMS id x y z radius fx fy fz
0 -0.4118001913 0.2995409671 0.0 6.957e05 -1.1330991889e-05 6.8226097985e-06 0.0
1 9.7393512993e06 2.1443783436e06 0.0 1.911303e05 -6.8999481539 28.9878217431 0.0
2 -7.1631316002e06 -2.4025386149e05 0.0 1.815552e05 1.0668229207 -35.1705979942 0.0
3 1.0008218644e07 1.3381358984e06 0.0 1.0e05 -3.259119267 18.4286199061 0.0
ITEM: TIMESTEP
27
ITEM: NUMBER OF ATOMS
4
ITEM: BOX BOUNDS ff ff ff
0.0 4.0
0.0 2.0
0.0 2.0
ITEM: ATOMS id x y z radius fx fy fz
0 -0.4451012884 0.3193651105 0.0 6.957e05 -1.179484116e-05 6.9423779893e-06 0.0
1 9.7191183076e06 2.2277826686e06 0.0 1.911303e05 -7.1506719248 28.9314860805 0.0
2 -7.1593433643e06 -3.4151779819e05 0.0 1.815552e05 1.56384136 -35.1504093871 0.0
3 9.9984746341e06 1.3911619921e06 0.0 1.0e05 -3.5075442291 18.3948314307 0.0
ITEM: TIMESTEP
28
ITEM: NUMBER OF ATOMS
4
ITEM: BOX BOUNDS ff ff ff
0.0 4.0
0.0 2.0
0.0 2.0
ITEM: ATOMS id x y z radius fx fy fz
0 -0.4797387968 0.3395188244 0.0 6.957e05 -1.2259024214e-05 7.0514797682e-06 0.0
1 9.6981638331e06 2.3110216174e06 0.0 1.911303e05 -7.4009747057 28.8729775617 0.0
2 -7.1541242389e06 -4.4271347835e05 0.0 1.815552e05 2.0604797021 -35.1231987261 0.0
3 9.9880152408e06 1.4440888309e06 0.0 1.0e05 -3.7559156409 18.3596923467 0.0
ITEM: TIMESTEP
29
ITEM: NUMBER OF ATOMS
4
ITEM: BOX BOUNDS ff ff ff
0.0 4.0
0.0 2.0
0.0 2.0
ITEM: ATOMS id x y z radius fx fy fz
0 -0.5157134097 0.3599714044 0.0 6.957e05 -1.272335499e-05 7.1499258582e-06 0.0
1 9.6764891156e06 2.3940889357e06 0.0 1.911303e05 -7.6508376186 28.8122986061 0.0
2 -7.1474754613e06 -5.4382068869e05 0.0 1.815552e05 2.5566387937 -35.0889733585 0.0
3 9.9768405977e06 1.4969125199e06 0.0 1.0e05 -4.0042478575 18.3231990021 0.0
ITEM: TIMESTEP
30
ITEM: NUMBER OF ATOMS
4
ITEM: BOX BOUNDS ff ff ff
0.0 4.0
0.0 2.0
0.0 2.0
ITEM: ATOMS id x y z radius fx fy fz
0 -0.5530252851 0.3806921809 0.0 6.957e05 -1.3187647793e-05 7.2377299116e-06 0.0
1 9.6540954489e06 2.4769783763e06 0.0 1.911303e05 -7.9002417848 28.7494517971 0.0
2 -7.1393985545e06 -6.4481923912e05 0.0 1.815552e05 3.0522196308 -35.0477420298 0.0
3 9.964950797e06 1.549629153e06 0.0 1.0e05 -4.2525551843 18.2853472208 0.0
ITEM: TIMESTEP
31
ITEM: NUMBER OF ATOMS
4
ITEM: BOX BOUNDS ff ff ff
0.0 4.0
0.0 2.0
0.0 2.0
ITEM: ATOMS id x y z radius fx fy fz
0 -0.5916740466 0.4016505281 0.0 6.957e05 -1.3651717341e-05 7.3149085009e-06 0.0
1 9.6309841814e06 2.5596836996e06 0.0 1.911303e05 -8.1491683261 28.6844398831 0.0
2 -7.1298953263e06 -7.4568896675e05 0.0 1.815552e05 3.5471233787 -34.9995148802 0.0
3 9.95234589e06 1.6022348113e06 0.0 1.0e05 -4.5008518853 18.2461323149 0.0
ITEM: TIMESTEP
32
ITEM: NUMBER OF ATOMS
4
ITEM: BOX BOUNDS ff ff ff
0.0 4.0
0.0 2.0
0.0 2.0
ITEM: ATOMS id x y z radius fx fy fz
0 -0.6316587852 0.4228158721 0.0 6.957e05 -1.4115378809e-05 7.3814811094e-06 0.0
1 9.6071567159e06 2.6421986743e06 0.0 1.911303e05 -8.3975983664 28.6172657774 0.0
2 -7.1189678686e06 -8.4640973987e05 0.0 1.815552e05 4.041251392 -34.9443034412 0.0
3 9.9390258867e06 1.6547255616e06 0.0 1.0e05 -4.7491521901 18.2055490936 0.0
ITEM: TIMESTEP
33
ITEM: NUMBER OF ATOMS
4
ITEM: BOX BOUNDS ff ff ff
0.0 4.0
0.0 2.0
0.0 2.0
ITEM: ATOMS id x y z radius fx fy fz
0 -0.6729780598 0.444157699 0.0 6.957e05 -1.4578447873e-05 7.4374701203e-06 0.0
1 9.5826145096e06 2.7245170777e06 0.0 1.911303e05 -8.6455130331 28.5479325588 0.0
2 -7.1066185575e06 -9.4696146201e05 0.0 1.815552e05 4.5345052333 -34.882120632 0.0
3 9.9249907563e06 1.7070974551e06 0.0 1.0e05 -4.9974703014 18.1635918695 0.0
ITEM: TIMESTEP
34
ITEM: NUMBER OF ATOMS
4
ITEM: BOX BOUNDS ff ff ff
0.0 4.0
0.0 2.0
0.0 2.0
ITEM: ATOMS id x y z radius fx fy fz
0 -0.7156298998 0.4656455639 0.0 6.957e05 -1.504074075e-05 7.4829008059e-06 0.0
1 9.5573590737e06 2.8066326962e06 0.0 1.911303e05 -8.8928934583 28.476443472 0.0
2 -7.0928500519e06 -1.0473240759e06 0.0 1.815552e05 5.0267866931 -34.8129807551 0.0
3 9.9102404271e06 1.7593465258e06 0.0 1.0e05 -5.2458204002 18.1202544629 0.0
ITEM: TIMESTEP
35
ITEM: NUMBER OF ATOMS
4
ITEM: BOX BOUNDS ff ff ff
0.0 4.0
0.0 2.0
0.0 2.0
ITEM: ATOMS id x y z radius fx fy fz
0 -0.7596118055 0.4872490986 0.0 6.957e05 -1.5502074243e-05 7.5178013158e-06 0.0
1 9.5313919742e06 2.8885393257e06 0.0 1.911303e05 -9.1397207808 28.4028019279 0.0
2 -7.0776652936e06 -1.1474775674e06 0.0 1.815552e05 5.5179978092 -34.7368994919 0.0
3 9.8947747865e06 1.8114687894e06 0.0 1.0e05 -5.4942166519 18.0755302038 0.0
ITEM: TIMESTEP
36
ITEM: NUMBER OF ATOMS
4
ITEM: BOX BOUNDS ff ff ff
0.0 4.0
0.0 2.0
0.0 2.0
ITEM: ATOMS id x y z radius fx fy fz
0 -0.8049207511 0.5089380202 0.0 6.957e05 -1.5962265785e-05 7.5422026648e-06 0.0
1 9.5047148311e06 2.9702307724e06 0.0 1.911303e05 -9.3859761472 28.3270115036 0.0
2 -7.0610675059e06 -1.2474019696e06 0.0 1.815552e05 6.0080408856 -34.6538938986 0.0
3 9.8785936812e06 1.8634602415e06 0.0 1.0e05 -5.7426732111 18.029411933 0.0
ITEM: TIMESTEP
37
ITEM: NUMBER OF ATOMS
4
ITEM: BOX BOUNDS ff ff ff
0.0 4.0
0.0 2.0
0.0 2.0
ITEM: ATOMS id x y z radius fx fy fz
0 -0.8515531855 0.5306821391 0.0 6.957e05 -1.6421133478e-05 7.5561387196e-06 0.0
1 9.4773293188e06 3.0517008527e06 0.0 1.911303e05 -9.6316407132 28.2490759435 0.0
2 -7.043060193e06 -1.3470773665e06 0.0 1.815552e05 6.4968185116 -34.5639824006 0.0
3 9.8616969173e06 1.9153168566e06 0.0 1.0e05 -5.9912042267 17.9818920017 0.0
ITEM: TIMESTEP
38
ITEM: NUMBER OF ATOMS
4
ITEM: BOX BOUNDS ff ff ff
0.0 4.0
0.0 2.0
0.0 2.0
ITEM: ATOMS id x y z radius fx fy fz
0 -0.8995050351 0.5524513677 0.0 6.957e05 -1.6878496138e-05 7.5596461859e-06 0.0
1 9.4492371659e06 3.1329433942e06 0.0 1.911303e05 -9.8766956456 28.1689991586 0.0
2 -7.0236471393e06 -1.4464838975e06 0.0 1.815552e05 6.9842335812 -34.467184788 0.0
3 9.8440842598e06 1.9670345861e06 0.0 1.0e05 -6.239823846 17.9329622696 0.0
ITEM: TIMESTEP
39
ITEM: NUMBER OF ATOMS
4
ITEM: BOX BOUNDS ff ff ff
0.0 4.0
0.0 2.0
0.0 2.0
ITEM: ATOMS id x y z radius fx fy fz
0 -0.9487717052 0.5742157276 0.0 6.957e05 -1.7334173336e-05 7.5527645938e-06 0.0
1 9.4204401552e06 3.2139522361e06 0.0 1.911303e05 -10.1211221235 28.0867852277 0.0
2 -7.0028324085e06 -1.5456017605e06 0.0 1.815552e05 7.470189312 -34.3635222098 0.0
3 9.8257554333e06 2.0186093576e06 0.0 1.0e05 -6.4885462197 17.8826141027 0.0
ITEM: TIMESTEP
40
ITEM: NUMBER OF ATOMS
4
ITEM: BOX BOUNDS ff ff ff
0.0 4.0
0.0 2.0
0.0 2.0
ITEM: ATOMS id x y z radius fx fy fz
0 -0.999348083 0.5959453588 0.0 6.957e05 -1.7787985439e-05 7.5355362835e-06 0.0
1 9.3909401238e06 3.2947212295e06 0.0 1.911303e05 -10.3649013396 28.002438397 0.0
2 -6.9806203424e06 -1.6444112166e06 0.0 1.815552e05 7.9545892634 -34.2530171683 0.0
3 9.8067101214e06 2.0700370729e06 0.0 1.0e05 -6.7373855053 17.8308383691 0.0
ITEM: TIMESTEP
41
ITEM: NUMBER OF ATOMS
4
ITEM: BOX BOUNDS ff ff ff
0.0 4.0
0.0 2.0
0.0 2.0
ITEM: ATOMS id x y z radius fx fy fz
0 -1.0512285392 0.617610527 0.0 6.957e05 -1.8239753652e-05 7.5080063896e-06 0.0
1 9.3607389629e06 3.375244238e06 0.0 1.911303e05 -10.6080145023 27.9159630806 0.0
2 -6.9570155602e06 -1.7428925935e06 0.0 1.815552e05 8.4373373561 -34.1356935135 0.0
3 9.786947967e06 2.1213136069e06 0.0 1.0e05 -6.9863558714 17.7776254352 0.0
ITEM: TIMESTEP
42
ITEM: NUMBER OF ATOMS
4
ITEM: BOX BOUNDS ff ff ff
0.0 4.0
0.0 2.0
0.0 2.0
ITEM: ATOMS id x y z radius fx fy fz
0 -1.104406931 0.639181632 0.0 6.957e05 -1.8689300057e-05 7.4702228256e-06 0.0
1 9.3298386177e06 3.4555151379e06 0.0 1.911303e05 -10.8504428365 27.8273638611 0.0
2 -6.9320229569e06 -1.8410262895e06 0.0 1.815552e05 8.9183378903 -34.0115764365 0.0
3 9.7664685721e06 2.1724348059e06 0.0 1.0e05 -7.2354715015 17.7229651602 0.0
ITEM: TIMESTEP
43
ITEM: NUMBER OF ATOMS
4
ITEM: BOX BOUNDS ff ff ff
0.0 4.0
0.0 2.0
0.0 2.0
ITEM: ATOMS id x y z radius fx fy fz
0 -1.1588766046 0.6606292155 0.0 6.957e05 -1.9136447658e-05 7.4222362676e-06 0.0
1 9.2982410876e06 3.5355278194e06 0.0 1.911303e05 -11.0921675858 27.7366454893 0.0
2 -6.9056477031e06 -1.9387927775e06 0.0 1.815552e05 9.3974955643 -33.8806924632 0.0
3 9.745271498e06 2.2233964865e06 0.0 1.0e05 -7.4847465974 17.6668468899 0.0
ITEM: TIMESTEP
44
ITEM: NUMBER OF ATOMS
4
ITEM: BOX BOUNDS ff ff ff
0.0 4.0
0.0 2.0
0.0 2.0
ITEM: ATOMS id x y z radius fx fy fz
0 -1.2146303977 0.6819239692 0.0 6.957e05 -1.9581020418e-05 7.3641001368e-06 0.0
1 9.2659484258e06 3.6152761863e06 0.0 1.911303e05 -11.3331700136 27.6438128845 0.0
2 -6.8778952427e06 -2.0361726086e06 0.0 1.815552e05 9.8747154927 -33.7430694479 0.0
3 9.723356265e06 2.2741944336e06 0.0 1.0e05 -7.734195383 17.6092594508 0.0
ITEM: TIMESTEP
45
ITEM: NUMBER OF ATOMS
4
ITEM: BOX BOUNDS ff ff ff
0.0 4.0
0.0 2.0
0.0 2.0
ITEM: ATOMS id x y z radius fx fy fz
0 -1.2716606423 0.7030367425 0.0 6.957e05 -2.0022843297e-05 7.2958705826e-06 0.0
1 9.2329627397e06 3.6947541568e06 0.0 1.911303e05 -11.5734314049 27.5488711351 0.0
2 -6.8487712928e06 -2.133146416e06 0.0 1.815552e05 10.3499032249 -33.5987365662 0.0
3 9.7007223522e06 2.3248243993e06 0.0 1.0e05 -7.9838321078 17.550191142 0.0
ITEM: TIMESTEP
46
ITEM: NUMBER OF ATOMS
4
ITEM: BOX BOUNDS ff ff ff
0.0 4.0
0.0 2.0
0.0 2.0
ITEM: ATOMS id x y z radius fx fy fz
0 -1.3299591681 0.7239385505 0.0 6.957e05 -2.0461742298e-05 7.2176064641e-06 0.0
1 9.1992861903e06 3.7739556643e06 0.0 1.911303e05 -11.8129330677 27.4518254984 0.0
2 -6.8182818413e06 -2.2296949189e06 0.0 1.815552e05 10.8229647631 -33.4477243076 0.0
3 9.6773691979e06 2.3752821013e06 0.0 1.0e05 -8.23367105 17.4896297278 0.0
ITEM: TIMESTEP
47
ITEM: NUMBER OF ATOMS
4
ITEM: BOX BOUNDS ff ff ff
0.0 4.0
0.0 2.0
0.0 2.0
ITEM: ATOMS id x y z radius fx fy fz
0 -1.389517305 0.7446005816 0.0 6.957e05 -2.08975445e-05 7.1293693315e-06 0.0
1 9.1649209925e06 3.8528746572e06 0.0 1.911303e05 -12.0516563347 27.3526814009 0.0
2 -6.7864331467e06 -2.3257989263e06 0.0 1.815552e05 11.2938065803 -33.2900644687 0.0
3 9.6532961991e06 2.4255632209e06 0.0 1.0e05 -8.48372652 17.4275624287 0.0
ITEM: TIMESTEP
48
ITEM: NUMBER OF ATOMS
4
ITEM: BOX BOUNDS ff ff ff
0.0 4.0
0.0 2.0
0.0 2.0
ITEM: ATOMS id x y z radius fx fy fz
0 -1.4503258865 0.7649942053 0.0 6.957e05 -2.1330078102e-05 7.0312234072e-06 0.0
1 9.129869415e06 3.9315051e06 0.0 1.911303e05 -12.2895825647 27.2514444385 0.0
2 -6.7532317357e06 -2.4214393403e06 0.0 1.815552e05 11.7623356381 -33.125790145 0.0
3 9.6285027115e06 2.4756634024e06 0.0 1.0e05 -8.7340128633 17.3639759124 0.0
ITEM: TIMESTEP
49
ITEM: NUMBER OF ATOMS
4
ITEM: BOX BOUNDS ff ff ff
0.0 4.0
0.0 2.0
0.0 2.0
ITEM: ATOMS id x y z radius fx fy fz
0 -1.5123752531 0.7850909801 0.0 6.957e05 -2.1759172456e-05 6.9232355657e-06 0.0
1 9.0941337799e06 4.0098409735e06 0.0 1.911303e05 -12.5266931444 27.1481203766 0.0
2 -6.7186844025e06 -2.5165971606e06 0.0 1.815552e05 12.2284594048 -32.9549357233 0.0
3 9.6029880495e06 2.5255782504e06 0.0 1.0e05 -8.9845444642 17.2988562836 0.0
ITEM: TIMESTEP
50
ITEM: NUMBER OF ATOMS
4
ITEM: BOX BOUNDS ff ff ff
0.0 4.0
0.0 2.0
0.0 2.0
ITEM: ATOMS id x y z radius fx fy fz
0 -1.5756552555 0.8048626606 0.0 6.957e05 -2.2184658114e-05 6.8054753139e-06 0.0
1 9.0577164633e06 4.0878762754e06 0.0 1.911303e05 -12.7629694899 27.0427151503 0.0
2 -6.6827982069e06 -2.6112534874e06 0.0 1.815552e05 12.6920858723 -32.7775368737 0.0
3 9.5767514861e06 2.5753033289e06 0.0 1.0e05 -9.2353357481 17.232189074 0.0
ITEM: TIMESTEP
51
ITEM: NUMBER OF ATOMS
4
ITEM: BOX BOUNDS ff ff ff
0.0 4.0
0.0 2.0
0.0 2.0
ITEM: ATOMS id x y z radius fx fy fz
0 -1.640155258 0.8242812055 0.0 6.957e05 -2.2606366855e-05 6.6780147698e-06 0.0
1 9.0206198944e06 4.1656050207e06 0.0 1.911303e05 -12.9983930481 26.9352348644 0.0
2 -6.6455804731e06 -2.7053895258e06 0.0 1.815552e05 13.1531235744 -32.593630541 0.0
3 9.5497922524e06 2.6248341594e06 0.0 1.0e05 -9.4864011849 17.1639592304 0.0
ITEM: TIMESTEP
52
ITEM: NUMBER OF ATOMS
4
ITEM: BOX BOUNDS ff ff ff
0.0 4.0
0.0 2.0
0.0 2.0
ITEM: ATOMS id x y z radius fx fy fz
0 -1.7058641424 0.843318785 0.0 6.957e05 -2.3024131732e-05 6.5409286417e-06 0.0
1 8.9828465558e06 4.2430212422e06 0.0 1.911303e05 -13.2329452988 26.8256857935 0.0
2 -6.6070387877e06 -2.7989865888e06 0.0 1.815552e05 13.6114816033 -32.4032549363 0.0
3 9.5221095381e06 2.674166219e06 0.0 1.0e05 -9.7377552922 17.0941511036 0.0
ITEM: TIMESTEP
53
ITEM: NUMBER OF ATOMS
4
ITEM: BOX BOUNDS ff ff ff
0.0 4.0
0.0 2.0
0.0 2.0
ITEM: ATOMS id x y z radius fx fy fz
0 -1.7727703116 0.861947788 0.0 6.957e05 -2.3437787105e-05 6.3942942062e-06 0.0
1 8.9443989836e06 4.3201189911e06 0.0 1.911303e05 -13.4666077557 26.7140743822 0.0
2 -6.5671809983e06 -2.8920261015e06 0.0 1.815552e05 14.0670696277 -32.2064495282 0.0
3 9.4937024909e06 2.723294939e06 0.0 1.0e05 -9.9894126373 17.0227484353 0.0
ITEM: TIMESTEP
54
ITEM: NUMBER OF ATOMS
4
ITEM: BOX BOUNDS ff ff ff
0.0 4.0
0.0 2.0
0.0 2.0
ITEM: ATOMS id x y z radius fx fy fz
0 -1.8408616933 0.8801408298 0.0 6.957e05 -2.3847168675e-05 6.238191286e-06 0.0
1 8.9052797671e06 4.3968923372e06 0.0 1.911303e05 -13.6993619687 26.6004072453 0.0
2 -6.526015212e06 -2.9844896045e06 0.0 1.815552e05 14.5197979087 -32.003255034 0.0
3 9.4645702162e06 2.772215703e06 0.0 1.0e05 -10.2413878409 16.9497343457 0.0
ITEM: TIMESTEP
55
ITEM: NUMBER OF ATOMS
4
ITEM: BOX BOUNDS ff ff ff
0.0 4.0
0.0 2.0
0.0 2.0
ITEM: ATOMS id x y z radius fx fy fz
0 -1.9101257439 0.8978707591 0.0 6.957e05 -2.4252113529e-05 6.0727022272e-06 0.0
1 8.8654915483e06 4.4733353698e06 0.0 1.911303e05 -13.9311895248 26.4846911674 0.0
2 -6.4835497933e06 -3.0763587572e06 0.0 1.815552e05 14.9695773179 -31.7937134099 0.0
3 9.4347117777e06 2.8209238451e06 0.0 1.0e05 -10.4936955792 16.8750913186 0.0
ITEM: TIMESTEP
56
ITEM: NUMBER OF ATOMS
4
ITEM: BOX BOUNDS ff ff ff
0.0 4.0
0.0 2.0
0.0 2.0
ITEM: ATOMS id x y z radius fx fy fz
0 -1.9805494529 0.9151106653 0.0 6.957e05 -2.4652460166e-05 5.897911876e-06 0.0
1 8.8250370226e06 4.549442198e06 0.0 1.911303e05 -14.1620720503 26.3669331033 0.0
2 -6.4397933625e06 -3.1676153419e06 0.0 1.815552e05 15.416319353 -31.5778678422 0.0
3 9.4041261963e06 2.8694146478e06 0.0 1.0e05 -10.7463505866 16.7988011879 0.0
ITEM: TIMESTEP
57
ITEM: NUMBER OF ATOMS
4
ITEM: BOX BOUNDS ff ff ff
0.0 4.0
0.0 2.0
0.0 2.0
ITEM: ATOMS id x y z radius fx fy fz
0 -2.0521193465 0.931833886 0.0 6.957e05 -2.504804854e-05 5.7139075553e-06 0.0
1 8.7839189381e06 4.625206951e06 0.0 1.911303e05 -14.3919912123 26.2471401779 0.0
2 -6.394754794e06 -3.2582412668e06 0.0 1.815552e05 15.8599361553 -31.3557627374 0.0
3 9.3728124507e06 2.9176833406e06 0.0 1.0e05 -10.9993676585 16.7208451217 0.0
ITEM: TIMESTEP
58
ITEM: NUMBER OF ATOMS
4
ITEM: BOX BOUNDS ff ff ff
0.0 4.0
0.0 2.0
0.0 2.0
ITEM: ATOMS id x y z radius fx fy fz
0 -2.1248214922 0.9480140135 0.0 6.957e05 -2.5438720092e-05 5.5207790399e-06 0.0
1 8.7421400956e06 4.7006237789e06 0.0 1.911303e05 -14.6209287201 26.1253196864 0.0
2 -6.3484432142e06 -3.3482185699e06 0.0 1.815552e05 16.3003405255 -31.1274437122 0.0
3 9.3407694767e06 2.9657250977e06 0.0 1.0e05 -11.2527616538 16.6412036064 0.0
ITEM: TIMESTEP
59
ITEM: NUMBER OF ATOMS
4
ITEM: BOX BOUNDS ff ff ff
0.0 4.0
0.0 2.0
0.0 2.0
ITEM: ATOMS id x y z radius fx fy fz
0 -2.1986415032 0.9636249025 0.0 6.957e05 -2.5824317785e-05 5.3186185326e-06 0.0
1 8.6997033486e06 4.7756868531e06 0.0 1.911303e05 -14.8488663274 26.0014790938 0.0
2 -6.3008679996e06 -3.4375294221e06 0.0 1.815552e05 16.7374459403 -30.8929575835 0.0
3 9.3079961674e06 3.013535036e06 0.0 1.0e05 -11.5065474968 16.5598564301 0.0
ITEM: TIMESTEP
60
ITEM: NUMBER OF ATOMS
4
ITEM: BOX BOUNDS ff ff ff
0.0 4.0
0.0 2.0
0.0 2.0
ITEM: ATOMS id x y z radius fx fy fz
0 -2.2735645425 0.9786406763 0.0 6.957e05 -2.620468614e-05 5.1075206386e-06 0.0
1 8.656611603e06 4.8503903665e06 0.0 1.911303e05 -15.0757858333 25.8756260353 0.0
2 -6.252038775e06 -3.5261561312e06 0.0 1.815552e05 17.1711665683 -30.6523523583 0.0
3 9.2744913726e06 3.0611082132e06 0.0 1.0e05 -11.7607401801 16.4767826647 0.0
ITEM: TIMESTEP
61
ITEM: NUMBER OF ATOMS
4
ITEM: BOX BOUNDS ff ff ff
0.0 4.0
0.0 2.0
0.0 2.0
ITEM: ATOMS id x y z radius fx fy fz
0 -2.3495753275 0.9930357345 0.0 6.957e05 -2.6579671268e-05 4.8875823403e-06 0.0
1 8.612867817e06 4.9247285346e06 0.0 1.911303e05 -15.3016690845 25.7477683164 0.0
2 -6.2019654113e06 -3.6140811446e06 0.0 1.815552e05 17.601417286 -30.4056772229 0.0
3 9.2402538989e06 3.1084396259e06 0.0 1.0e05 -12.0153547666 16.3919606475 0.0
ITEM: TIMESTEP
62
ITEM: NUMBER OF ATOMS
4
ITEM: BOX BOUNDS ff ff ff
0.0 4.0
0.0 2.0
0.0 2.0
ITEM: ATOMS id x y z radius fx fy fz
0 -2.4266581349 1.0067847591 0.0 6.957e05 -2.6949120903e-05 4.6589029711e-06 0.0
1 8.5684750012e06 4.9986955952e06 0.0 1.911303e05 -15.5264979766 25.6179139121 0.0
2 -6.1506580236e06 -3.7012870532e06 0.0 1.815552e05 18.0281136939 -30.1529825324 0.0
3 9.2052825096e06 3.1555242068e06 0.0 1.0e05 -12.2704063913 16.3053679625 0.0
ITEM: TIMESTEP
63
ITEM: NUMBER OF ATOMS
4
ITEM: BOX BOUNDS ff ff ff
0.0 4.0
0.0 2.0
0.0 2.0
ITEM: ATOMS id x y z radius fx fy fz
0 -2.5047968052 1.0198627217 0.0 6.957e05 -2.731288444e-05 4.4215841891e-06 0.0
1 8.5234362182e06 5.0722858097e06 0.0 1.911303e05 -15.7502544561 25.4860709676 0.0
2 -6.0981269689e06 -3.7877565946e06 0.0 1.815552e05 18.4511721313 -29.8943198 0.0
3 9.169575924e06 3.2023568232e06 0.0 1.0e05 -12.5259102639 16.2169814193 0.0
ITEM: TIMESTEP
64
ITEM: NUMBER OF ATOMS
4
ITEM: BOX BOUNDS ff ff ff
0.0 4.0
0.0 2.0
0.0 2.0
ITEM: ATOMS id x y z radius fx fy fz
0 -2.5839747476 1.0322448899 0.0 6.957e05 -2.7670812962e-05 4.1757299502e-06 0.0
1 8.4777545824e06 5.145493463e06 0.0 1.911303e05 -15.972920522 25.3522477977 0.0
2 -6.0443828442e06 -3.8734726564e06 0.0 1.815552e05 18.8705096926 -29.6297416854 0.0
3 9.1331328176e06 3.2489322746e06 0.0 1.0e05 -12.7818816702 16.1267770326 0.0
ITEM: TIMESTEP
65
ITEM: NUMBER OF ATOMS
4
ITEM: BOX BOUNDS ff ff ff
0.0 4.0
0.0 2.0
0.0 2.0
ITEM: ATOMS id x y z radius fx fy fz
0 -2.6641749448 1.0439068341 0.0 6.957e05 -2.8022759274e-05 3.9214464811e-06 0.0
1 8.43143326e06 5.2183128641e06 0.0 1.911303e05 -16.1944782273 25.2164528871 0.0
2 -5.989436484e06 -3.9584182796e06 0.0 1.815552e05 19.2860442422 -29.3593019841 0.0
3 9.095951822e06 3.29524529e06 0.0 1.0e05 -13.0383359742 16.0347300001 0.0
ITEM: TIMESTEP
66
ITEM: NUMBER OF ATOMS
4
ITEM: BOX BOUNDS ff ff ff
0.0 4.0
0.0 2.0
0.0 2.0
ITEM: ATOMS id x y z radius fx fy fz