ITEM: TIMESTEP
0
ITEM: NUMBER OF ATOMS
100
ITEM: BOX BOUNDS ff ff ff
0.0 7.0
0.0 7.0
0.0 2.0
ITEM: ATOMS id x y z radius Angle fx fy fz
0 5.1929730496 0.3847673998 0.0 0.1 1.741799838 -0.0051051393 0.0295624348 0.0
1 1.7392200708 5.7521351001 0.0 0.1 4.4711912517 -0.0071659757 -0.0291315772 0.0
2 4.9238863493 2.0585046472 0.0 0.1 2.3206907745 -0.0204468457 0.0219528244 0.0
3 0.782283627 3.1624110758 0.0 0.1 1.4307255484 0.004188396 0.0297061835 0.0
4 1.0174946296 1.9325464863 0.0 0.1 5.8741062234 0.0275246256 -0.011932937 0.0
5 2.0692555921 1.5797502581 0.0 0.1 5.4280531998 0.0196835646 -0.022639728 0.0
6 5.6427434149 3.2914748997 0.0 0.1 2.3483453955 -0.0210460473 0.0213790527 0.0
7 1.2406544827 5.7930045441 0.0 0.1 5.3198623556 0.0171238407 -0.0246327846 0.0
8 4.9015323026 2.2206918505 0.0 0.1 4.0165616478 -0.0192306197 -0.0230257088 0.0
9 3.3657032658 1.7238976026 0.0 0.1 0.0519023429 0.0299596013 0.0015563713 0.0
10 2.649235425 0.1069792379 0.0 0.1 1.1227921106 0.0129950271 0.0270394022 0.0
11 4.2472710157 6.9076826247 0.0 0.1 1.1008272785 0.0135857607 0.0267474692 0.0
12 5.76147274 0.3952068071 0.0 0.1 0.795387546 0.0210002418 0.0214240483 0.0
13 0.3621352089 1.1059110773 0.0 0.1 4.3553137639 -0.010486063 -0.0281076944 0.0
14 6.4730767162 0.7473987837 0.0 0.1 3.5991697491 -0.0269137653 -0.0132532727 0.0
15 3.0854619261 4.3571876019 0.0 0.1 4.0315773408 -0.0188827178 -0.0233118633 0.0
16 4.953286846 2.7493917489 0.0 0.1 3.003882673 -0.0297159887 0.0041182541 0.0
17 1.2458579362 6.0051879621 0.0 0.1 3.3970198003 -0.0290266638 -0.0075797616 0.0
18 3.2880407297 2.5280895193 0.0 0.1 0.6778720568 0.0233672698 0.0188141091 0.0
19 3.4235640635 1.1953673376 0.0 0.1 2.4456922075 -0.0230243027 0.0192323031 0.0
20 5.5158143015 0.0788468994 0.0 0.1 2.9614414981 -0.0295144986 0.0053753485 0.0
21 4.7393164987 3.0026764228 0.0 0.1 4.3734723406 -0.0099739666 -0.028293462 0.0
22 6.3078019921 6.7577840668 0.0 0.1 6.0488531713 0.029180089 -0.0069658028 0.0
23 5.1851150449 3.7422623422 0.0 0.1 2.5091515035 -0.0241976073 0.0177334655 0.0
24 2.2963122133 0.2678590183 0.0 0.1 1.6475513206 -0.0023003895 0.0299116734 0.0
25 0.8205992747 3.1235213292 0.0 0.1 4.7242827987 3.5680613649e-04 -0.0299978781 0.0
26 4.9370893002 5.5602995474 0.0 0.1 0.7459988745 0.0220323098 0.020361172 0.0
27 1.3999418696 4.7350211981 0.0 0.1 0.1916005793 0.0294510208 0.0057129128 0.0
28 5.1418606949 2.3845161382 0.0 0.1 1.5249072893 0.001376188 0.0299684185 0.0
29 3.2041335611 5.8937121939 0.0 0.1 2.3573749449 -0.0212382299 0.0211881474 0.0
30 5.7367416489 2.7498952493 0.0 0.1 3.2999189732 -0.0296247764 -0.0047299704 0.0
31 3.0322388724 0.1564900278 0.0 0.1 5.4502520988 0.0201812506 -0.0221972324 0.0
32 3.0902181253 3.3118933993 0.0 0.1 4.9025084224 0.0056692856 -0.0294594501 0.0
33 4.4526697526 2.7755750245 0.0 0.1 4.4289911525 -0.0083885864 -0.0288033265 0.0
34 4.0112624245 6.6626237569 0.0 0.1 1.934582173 -0.0106744459 0.0280366939 0.0
35 2.5317297393 6.0813194286 0.0 0.1 4.7224091 3.0059855788e-04 -0.029998494 0.0
36 3.2437225131 3.6926563039 0.0 0.1 4.3138117545 -0.0116432246 -0.0276484235 0.0
37 5.341644411 1.196953978 0.0 0.1 5.9933010778 0.0287483092 -0.0085752386 0.0
38 6.5774646 4.5960197381 0.0 0.1 1.4622867621 0.0032489026 0.0298235583 0.0
39 0.6040062479 1.6294314893 0.0 0.1 5.4884088256 0.0210133293 -0.0214112118 0.0
40 6.7598291566 2.7144207543 0.0 0.1 4.3073687175 -0.0118211215 -0.0275728324 0.0
41 5.8470185016 3.1389260165 0.0 0.1 3.4521453875 -0.0285649442 -0.0091675493 0.0
42 4.0228013614 0.2594693638 0.0 0.1 3.6051192851 -0.0268344386 -0.0134131616 0.0
43 5.4461389261 5.8666921362 0.0 0.1 5.3254730422 0.0172617773 -0.0245363209 0.0
44 3.1418817037 1.0132183337 0.0 0.1 5.3740281676 0.0184323292 -0.0236695847 0.0
45 0.8776825057 6.9968906455 0.0 0.1 3.6272343068 -0.0265312687 -0.0140032775 0.0
46 2.511974954 1.3876059657 0.0 0.1 1.6038194115 -9.9051248741e-04 0.0299836436 0.0
47 6.4436511971 1.2426307454 0.0 0.1 4.7810184486 0.0020572682 -0.0299293777 0.0
48 2.7637084209 4.7224066631 0.0 0.1 0.0232723631 0.0299918763 6.9810787271e-04 0.0
49 4.6235245299 5.179881638 0.0 0.1 1.6041956429 -0.0010017932 0.0299832688 0.0
50 2.9504183326 0.4190725594 0.0 0.1 4.0076632508 -0.0194347475 -0.0228536778 0.0
51 3.0749524635 5.9050531565 0.0 0.1 1.8258839134 -0.0075699049 0.029029236 0.0
52 3.3116373835 4.4443714698 0.0 0.1 1.2804354429 0.0085889406 0.0287442185 0.0
53 3.1402520271 0.6629416254 0.0 0.1 4.1274686737 -0.0165639882 -0.0250126827 0.0
54 6.0632436048 6.8929980375 0.0 0.1 3.7812942651 -0.0240682176 -0.0179086824 0.0
55 3.5193243597 3.9813898661 0.0 0.1 0.7363313417 0.0222281195 0.0201472257 0.0
56 4.5775259962 2.6723623361 0.0 0.1 1.6550980124 -0.0025260561 0.0298934615 0.0
57 2.5420644483 4.4574044249 0.0 0.1 5.8324372407 0.027003644 -0.0130691702 0.0
58 4.6982497137 2.9655288605 0.0 0.1 4.042006285 -0.0186385772 -0.0235075188 0.0
59 0.2145516091 4.6666236086 0.0 0.1 0.1756085242 0.0295386122 0.0052412201 0.0
60 5.7863958961 3.939806733 0.0 0.1 4.6013926026 -0.0033230581 -0.0298153867 0.0
61 5.9232669712 5.713929165 0.0 0.1 5.0217244558 0.0091327716 -0.0285760824 0.0
62 3.4115842348 3.1987614328 0.0 0.1 3.4202633854 -0.0288426582 -0.0082523371 0.0
63 1.360293749 5.7076403448 0.0 0.1 1.8774067421 -0.0090548662 0.0286008636 0.0
64 5.3922704721 2.7244455048 0.0 0.1 1.0073471466 0.016023161 0.0253625375 0.0
65 5.8799226758 5.9231296712 0.0 0.1 1.7254053998 -0.0046198154 0.0296421542 0.0
66 2.1446534553 2.5244166255 0.0 0.1 5.0489932819 0.0099085159 -0.0283164495 0.0
67 3.1132890039 2.6238481253 0.0 0.1 1.0818087115 0.0140919716 0.0264842658 0.0
68 4.0258045408 5.8846344617 0.0 0.1 4.4719388032 -0.0071441963 -0.029136926 0.0
69 4.2526335761 0.4286428093 0.0 0.1 0.0671575945 0.0299323733 0.0020132137 0.0
70 1.5508725326 4.0346040873 0.0 0.1 2.648540754 -0.0264267735 0.0141994945 0.0
71 5.9704875601 4.7539053999 0.0 0.1 3.181748248 -0.0299758162 -0.0012043441 0.0
72 6.0273041948 2.1551544654 0.0 0.1 5.7455845589 0.0257681926 -0.0153622996 0.0
73 2.4615465722 2.2174786721 0.0 0.1 0.1980535044 0.0294135429 0.0059028378 0.0
74 5.2808515181 5.0020148298 0.0 0.1 5.1725483736 0.0133227278 -0.0268794517 0.0
75 5.5862033844 6.9684055857 0.0 0.1 6.0462251773 0.0291616821 -0.0070424637 0.0
76 2.7487279808 2.9798750285 0.0 0.1 1.7311160353 -0.0047890147 0.0296152889 0.0
77 5.5546772873 1.7024986566 0.0 0.1 0.7523658572 0.0219022249 0.0205010377 0.0
78 3.2846097201 3.2818909281 0.0 0.1 4.2101867565 -0.0144407102 -0.026295739 0.0
79 2.0193826229 0.6383580563 0.0 0.1 2.6025702227 -0.0257463262 0.0153989183 0.0
80 6.5582626772 0.7086152215 0.0 0.1 4.5936318925 -0.0035543442 -0.0297886998 0.0
81 0.8406447794 2.961863013 0.0 0.1 2.6953212994 -0.0270618801 0.0129481521 0.0
82 5.9394136186 3.9981135902 0.0 0.1 0.4037944731 0.0275873019 0.0117873142 0.0
83 3.1570792345 4.1993133584 0.0 0.1 3.9264572417 -0.0212245193 -0.0212018816 0.0
84 3.231070304 6.9355437267 0.0 0.1 2.6053764901 -0.0257894383 0.0153266067 0.0
85 6.7269127482 5.6502920853 0.0 0.1 3.8189953083 -0.0233760986 -0.0188031384 0.0
86 4.5618292937 1.1657520168 0.0 0.1 1.1399547206 0.0125290694 0.0272584376 0.0
87 6.8102344858 4.4009721371 0.0 0.1 3.8183685504 -0.023387879 -0.0187884836 0.0
88 0.1597970805 6.5064641791 0.0 0.1 0.161290102 0.0296106278 0.0048177509 0.0
89 2.1346289265 6.5469856956 0.0 0.1 6.2826573025 0.0299999958 -1.5840140598e-05 0.0
90 1.6125870311 1.6524204102 0.0 0.1 4.2726269171 -0.0127717254 -0.0271455895 0.0
91 3.7278499733 2.0821255254 0.0 0.1 3.2317292288 -0.0298782135 -0.0027004371 0.0
92 6.5684394501 0.4723288348 0.0 0.1 1.0041032389 0.0161053503 0.0253104265 0.0
93 3.6111579106 5.4550441088 0.0 0.1 1.8241626609 -0.007519927 0.0290422227 0.0
94 3.6528478666 6.6307840408 0.0 0.1 2.0816974545 -0.0146689051 0.0261691273 0.0
95 3.525653145 1.0607670538 0.0 0.1 2.0937463044 -0.0149831406 0.0259904886 0.0
96 0.6631613827 5.016322585 0.0 0.1 2.023934678 -0.0131336792 0.0269723279 0.0
97 6.0114000032 1.9172333087 0.0 0.1 1.9168437909 -0.010175467 0.0282216206 0.0
98 4.8604689522 0.4245582341 0.0 0.1 1.1919338584 0.0110959153 0.0278725791 0.0
99 3.2753443096 4.4792238858 0.0 0.1 1.007342426 0.0160232808 0.0253624619 0.0
ITEM: TIMESTEP
1
ITEM: NUMBER OF ATOMS
100
ITEM: BOX BOUNDS ff ff ff
0.0 7.0
0.0 7.0
0.0 2.0
ITEM: ATOMS id x y z radius Angle fx fy fz
0 5.1878679103 0.4143298346 0.0 0.1 0.7825374404 0.0212738016 0.0211524316 0.0
1 1.7320540952 5.7230035229 0.0 0.1 -0.8051080794 0.0207909997 -0.0216271665 0.0
2 4.9034395035 2.0804574716 0.0 0.1 2.6541463115 -0.0265059539 0.0140511354 0.0
3 0.786472023 3.1921172593 0.0 0.1 2.4553488147 -0.0232089451 0.0190090732 0.0
4 1.0450192552 1.9206135492 0.0 0.1 -0.9470184035 0.0175231733 -0.0243503264 0.0
5 2.0889391567 1.55711053 0.0 0.1 -1.1994652034 0.0108856846 -0.0279553549 0.0
6 5.6216973677 3.3128539524 0.0 0.1 -2.6920574291 -0.027019475 -0.0130364094 0.0
7 1.2577783234 5.7683717595 0.0 0.1 0.4315416963 0.0272496594 0.0125481497 0.0
8 4.8823016829 2.1976661416 0.0 0.1 3.1947373768 -0.0299576445 -0.0015935913 0.0
9 3.3956628671 1.7254539739 0.0 0.1 1.3432305595 0.0067682016 0.0292265538 0.0
10 2.6622304522 0.1340186401 0.0 0.1 -2.2882244787 -0.0197234689 -0.0226049723 0.0
11 4.2608567764 6.9344300939 0.0 0.1 2.2185070696 -0.0181008714 0.0239240142 0.0
12 5.7824729818 0.4166308554 0.0 0.1 0.4208486119 0.0273822774 0.0122560549 0.0
13 0.3516491458 1.077803383 0.0 0.1 -0.9971767409 0.0162802752 -0.0251982666 0.0
14 6.4461629509 0.734145511 0.0 0.1 -2.0627758774 -0.0141711476 -0.0264419851 0.0
15 3.0665792083 4.3338757386 0.0 0.1 -1.139148052 0.0125510538 -0.0272483219 0.0
16 4.9235708573 2.753510003 0.0 0.1 3.3030182954 -0.0296099745 -0.0048217643 0.0
17 1.2168312723 5.9976082005 0.0 0.1 1.1898754764 0.0111532642 0.0278496804 0.0
18 3.3114079995 2.5469036284 0.0 0.1 -2.0463765618 -0.0137356311 -0.0266708162 0.0
19 3.4005397608 1.2145996407 0.0 0.1 2.465759194 -0.0234055756 0.0187664336 0.0
20 5.4862998028 0.0842222479 0.0 0.1 0.9506195491 0.0174353708 0.0244132719 0.0
21 4.7293425321 2.9743829608 0.0 0.1 2.8194885677 -0.0284571433 0.0094968941 0.0
22 6.336982081 6.750818264 0.0 0.1 -1.312585077 0.0076605453 -0.0290054485 0.0
23 5.1609174376 3.7599958077 0.0 0.1 -2.7933440711 -0.0281991549 -0.0102375615 0.0
24 2.2940118238 0.2977706917 0.0 0.1 -2.853456862 -0.0287632585 -0.0085249609 0.0
25 0.8209560808 3.0935234512 0.0 0.1 3.3468694277 -0.0293701381 -0.0061151439 0.0
26 4.95912161 5.5806607194 0.0 0.1 -0.4517019548 0.0269911652 -0.0130949227 0.0
27 1.4293928904 4.740734111 0.0 0.1 0.5703462982 0.0252514215 0.016197707 0.0
28 5.1432368829 2.4144845567 0.0 0.1 2.6191200411 -0.0259976381 0.0149707319 0.0
29 3.1828953312 5.9149003413 0.0 0.1 2.6913321138 -0.0270100124 0.0130560036 0.0
30 5.7071168724 2.7451652789 0.0 0.1 3.0703883192 -0.0299239813 0.0021343254 0.0
31 3.052420123 0.1342927955 0.0 0.1 -2.5406091639 -0.0247433969 -0.0169636173 0.0
32 3.0958874109 3.2824339492 0.0 0.1 -2.2760113247 -0.0194459268 -0.0228441662 0.0
33 4.4442811661 2.746771698 0.0 0.1 -2.813039155 -0.0283953025 -0.0096802271 0.0
34 4.0005879787 6.6906604508 0.0 0.1 2.9802028613 -0.0296101473 0.0048207028 0.0
35 2.5320303378 6.0513209347 0.0 0.1 2.8636643357 -0.0288487769 0.0082309217 0.0
36 3.2320792885 3.6650078804 0.0 0.1 -0.8778788827 0.0191635361 -0.0230815702 0.0
37 5.3703927202 1.1883787394 0.0 0.1 1.0823650123 0.0140772362 0.0264921011 0.0
38 6.5807135025 4.6258432965 0.0 0.1 -2.7500618419 -0.0277297794 -0.0114481149 0.0
39 0.6250195772 1.6080202775 0.0 0.1 -1.6278501383 -0.0017106859 -0.0299511862 0.0
40 6.7480080351 2.6868479219 0.0 0.1 -3.1923388027 -0.0299613807 0.0015217312 0.0
41 5.8184535574 3.1297584672 0.0 0.1 -3.0354026842 -0.0298310142 -0.0031797153 0.0
42 3.9959669228 0.2460562022 0.0 0.1 2.2254947758 -0.0182676021 0.0237969475 0.0
43 5.4634007034 5.8421558152 0.0 0.1 -0.6794958343 0.0233366891 -0.0188520276 0.0
44 3.1603140329 0.989548749 0.0 0.1 3.2283828749 -0.0298870828 -0.0026004391 0.0
45 0.851151237 6.9828873679 0.0 0.1 1.2963346317 0.0081308646 0.028877137 0.0
46 2.5109844415 1.4175896094 0.0 0.1 -3.1367127781 -0.0299996428 -1.4639568509e-04 0.0
47 6.4457084653 1.2127013678 0.0 0.1 -0.0597744339 0.0299464212 -0.0017921653 0.0
48 2.7937002973 4.723104771 0.0 0.1 -0.1639165704 0.029597872 -0.0048955056 0.0
49 4.6225227367 5.2098649068 0.0 0.1 -0.8125939682 0.0206285201 -0.0217821982 0.0
50 2.9309835851 0.3962188816 0.0 0.1 -3.249032266 -0.0298270174 0.0032169909 0.0
51 3.0673825587 5.9340823925 0.0 0.1 1.9614136712 -0.0114227799 0.0277402253 0.0
52 3.3202263242 4.4731156883 0.0 0.1 -0.0332170077 0.029983451 -9.9632698686e-04 0.0
53 3.1236880389 0.6379289427 0.0 0.1 2.9687206704 -0.0295528444 0.0051603669 0.0
54 6.0391753873 6.8750893552 0.0 0.1 -1.4855471485 0.0025543788 -0.0298910547 0.0
55 3.5415524792 4.0015370919 0.0 0.1 -1.1960127565 0.0109821339 -0.0279176062 0.0
56 4.5749999401 2.7022557976 0.0 0.1 3.130762972 -0.0299982408 3.2488409615e-04 0.0
57 2.5690680923 4.4443352547 0.0 0.1 -0.5598229212 0.0254204748 -0.0159310848 0.0
58 4.6796111365 2.9420213417 0.0 0.1 3.0141113489 -0.0297565577 0.0038140888 0.0
59 0.2440902213 4.6718648287 0.0 0.1 0.7912669506 0.0210883431 0.0213373332 0.0
60 5.7830728381 3.9099913463 0.0 0.1 -2.6679985686 -0.0266980446 -0.0136826318 0.0
61 5.9323997428 5.6853530826 0.0 0.1 -1.7405395224 -0.0050678772 -0.0295688454 0.0
62 3.3827415766 3.1905090957 0.0 0.1 -2.3215549824 -0.0204658099 -0.0219351459 0.0
63 1.3512388828 5.7362412084 0.0 0.1 1.043774602 0.0150888428 0.0259292658 0.0
64 5.4082936332 2.7498080424 0.0 0.1 3.3974208328 -0.0290236218 -0.0075914016 0.0
65 5.8753028604 5.9527718254 0.0 0.1 -1.2291018644 0.0100525222 -0.0282656469 0.0
66 2.1545619712 2.496100176 0.0 0.1 -1.3117471973 0.0076848457 -0.0289990197 0.0
67 3.1273809756 2.6503323911 0.0 0.1 -1.8337877816 -0.0077991093 -0.0289684983 0.0
68 4.0186603445 5.8554975357 0.0 0.1 2.5247869298 -0.0244719086 0.0173529734 0.0
69 4.2825659494 0.430656023 0.0 0.1 1.836718316 -0.0078839688 0.0289455184 0.0
70 1.5244457591 4.0488035819 0.0 0.1 2.8533424351 -0.0287622829 0.0085282521 0.0
71 5.9405117439 4.7527010558 0.0 0.1 -2.5184034401 -0.0243606383 -0.017508835 0.0
72 6.0530723874 2.1397921657 0.0 0.1 3.0647072389 -0.0299113732 0.0023042906 0.0
73 2.4909601151 2.2233815099 0.0 0.1 -2.184234446 -0.0172704635 -0.0245302077 0.0
74 5.2941742459 4.975135378 0.0 0.1 -0.7083174944 0.0227837255 -0.019516707 0.0
75 5.6153650665 6.9613631219 0.0 0.1 -0.9619229404 0.0171583101 -0.0246087869 0.0
76 2.7439389661 3.0094903174 0.0 0.1 -2.4542572319 -0.0231881813 -0.0190343964 0.0
77 5.5765795122 1.7229996943 0.0 0.1 1.8150433615 -0.0072547733 0.0291095906 0.0
78 3.2701690098 3.2555951892 0.0 0.1 -1.9692209546 -0.0116390054 -0.0276501999 0.0
79 1.9936362967 0.6537569746 0.0 0.1 -3.0309250661 -0.0298164777 -0.0033132549 0.0
80 6.554708333 0.6788265217 0.0 0.1 -0.6677507186 0.0235564936 -0.0185766415 0.0
81 0.8135828992 2.9748111651 0.0 0.1 3.4392016837 -0.0286812101 -0.0087970555 0.0
82 5.9670009205 4.0099009043 0.0 0.1 -2.5781408294 -0.0253624952 -0.0160232281 0.0
83 3.1358547153 4.1781114768 0.0 0.1 -1.2264621641 0.0101271 -0.0282390128 0.0
84 3.2052808657 6.9508703333 0.0 0.1 2.6530974909 -0.0264912022 0.0140789277 0.0
85 6.7035366496 5.6314889468 0.0 0.1 -2.3521017844 -0.0211262066 -0.0212998449 0.0
86 4.5743583631 1.1930104544 0.0 0.1 2.2876056018 -0.0197094754 0.0226171744 0.0
87 6.7868466068 4.3821836535 0.0 0.1 -2.2967152175 -0.0199146886 -0.0224366927 0.0
88 0.1894077082 6.5112819301 0.0 0.1 0.6396702903 0.0240687785 0.0179079285 0.0
89 2.1646289223 6.5469698554 0.0 0.1 1.3831410234 0.0055966763 0.0294733306 0.0
90 1.5998153057 1.6252748207 0.0 0.1 -1.4718853637 0.0029624928 -0.0298533689 0.0
91 3.6979717598 2.0794250882 0.0 0.1 -3.1595157947 -0.0299951815 5.3766544543e-04 0.0
92 6.5845448005 0.4976392614 0.0 0.1 0.0057140318 0.0299995102 1.7142002053e-04 0.0
93 3.6036379836 5.4840863315 0.0 0.1 1.3143690224 0.007608789 0.0290190684 0.0
94 3.6381789615 6.6569531681 0.0 0.1 2.566702445 -0.0251775602 0.0163122795 0.0
95 3.5106700044 1.0867575424 0.0 0.1 2.8607937283 -0.0288250303 0.0083137012 0.0
96 0.6500277035 5.0432949129 0.0 0.1 1.4729081754 0.0029319569 0.0298563834 0.0
97 6.0012245362 1.9454549294 0.0 0.1 2.7519839946 -0.0277517332 0.0113947929 0.0
98 4.8715648675 0.4524308131 0.0 0.1 0.9805311071 0.0166974416 0.0249237928 0.0
99 3.2913675904 4.5045863477 0.0 0.1 -0.7179079784 0.0225955059 -0.0197343131 0.0
ITEM: TIMESTEP
2
ITEM: NUMBER OF ATOMS
100
ITEM: BOX BOUNDS ff ff ff
0.0 7.0
0.0 7.0
0.0 2.0
ITEM: ATOMS id x y z radius Angle fx fy fz
0 5.2091417119 0.4354822662 0.0 0.1 1.6427099185 -0.0021555487 0.02992246 0.0
1 1.7528450949 5.7013763564 0.0 0.1 1.1203137713 0.013062 0.0270071131 0.0
2 4.8769335496 2.094508607 0.0 0.1 2.8244050833 -0.0285034908 0.0093568699 0.0
3 0.7632630779 3.2111263325 0.0 0.1 2.9178899795 -0.0292524819 0.0066552465 0.0
4 1.0625424285 1.8962632228 0.0 0.1 -1.8941630133 -0.0095328165 -0.0284451298 0.0
5 2.0998248413 1.5291551751 0.0 0.1 -1.5946972798 -7.1696032503e-04 -0.0299914316 0.0
6 5.5946778927 3.2998175429 0.0 0.1 -3.4831466859 -0.0282670583 0.0100485528 0.0
7 1.2850279829 5.7809199091 0.0 0.1 1.2740054564 0.0087735867 0.0286883979 0.0
8 4.8523440383 2.1960725503 0.0 0.1 2.5224064062 -0.0244305302 0.0174111802 0.0
9 3.4024310687 1.7546805277 0.0 0.1 -3.469543307 -0.028401133 0.0096631074 0.0
10 2.6425069833 0.1114136677 0.0 0.1 -3.3085322296 -0.0295829376 0.0049849576 0.0
11 4.242755905 6.958354108 0.0 0.1 3.0213462868 -0.0297833734 0.003598704 0.0
12 5.8098552592 0.4288869104 0.0 0.1 0.0147574477 0.0299967333 4.4270736103e-04 0.0
13 0.367929421 1.0526051164 0.0 0.1 -1.80764038 -0.0070390787 -0.0291624994 0.0
14 6.4319918032 0.7077035259 0.0 0.1 -0.134679917 0.0297283308 -0.004028194 0.0
15 3.0791302621 4.3066274167 0.0 0.1 -1.3230039625 0.0073579306 -0.0290836871 0.0
16 4.8939608828 2.7486882387 0.0 0.1 3.511504296 -0.0279707788 -0.0108459916 0.0
17 1.2279845365 6.0254578809 0.0 0.1 1.133946529 0.0126926162 0.027182669 0.0
18 3.2976723685 2.5202328121 0.0 0.1 -1.8159518108 -0.0072812149 -0.029102988 0.0
19 3.3771341852 1.2333660743 0.0 0.1 2.6363423099 -0.0262515999 0.0145207956 0.0
20 5.5037351737 0.1086355198 0.0 0.1 0.6577345316 0.023741376 0.0183397673 0.0
21 4.7008853888 2.9838798549 0.0 0.1 2.9751962466 -0.0295856409 0.0049688884 0.0
22 6.3446426263 6.7218128155 0.0 0.1 -1.303526305 0.0079229812 -0.0289348643 0.0
23 5.1327182827 3.7497582463 0.0 0.1 -2.5744270884 -0.0253028143 -0.0161173071 0.0
24 2.2652485653 0.2892457308 0.0 0.1 -3.3364846276 -0.0294320579 0.0058098167 0.0
25 0.7915859427 3.0874083072 0.0 0.1 3.0623831235 -0.029905937 0.0023738018 0.0
26 4.9861127752 5.5675657967 0.0 0.1 -0.687325056 0.0231883787 -0.019034156 0.0
27 1.454644312 4.7569318179 0.0 0.1 0.7085930832 0.022778346 0.0195229852 0.0
28 5.1172392448 2.4294552886 0.0 0.1 2.9277244289 -0.0293165169 0.0063672472 0.0
29 3.1558853189 5.927956345 0.0 0.1 2.7196954318 -0.0273694106 0.0122847615 0.0
30 5.6771928912 2.7472996043 0.0 0.1 2.6852277775 -0.0269298114 0.0132206376 0.0
31 3.0276767261 0.1173291782 0.0 0.1 2.9818594418 -0.0296180926 0.0047716446 0.0
32 3.0764414841 3.2595897829 0.0 0.1 -1.2603433926 0.0091646985 -0.028565859 0.0
33 4.4158858637 2.7370914708 0.0 0.1 -3.0376689139 -0.0298381436 -0.0031121033 0.0
34 3.9709778314 6.6954811536 0.0 0.1 2.8616474842 -0.0288321177 0.0082890886 0.0
35 2.5031815609 6.0595518563 0.0 0.1 1.7029780745 -0.0039539151 0.0297383012 0.0
36 3.2512428246 3.6419263102 0.0 0.1 -1.2683384157 0.0089360233 -0.0286382173 0.0
37 5.3844699565 1.2148708405 0.0 0.1 1.3043309139 0.0078996974 0.0289412298 0.0
38 6.5529837232 4.6143951816 0.0 0.1 -2.0274748972 -0.0132290847 -0.0269256628 0.0
39 0.6233088913 1.5780690913 0.0 0.1 -1.4280279183 0.004268517 -0.0296947767 0.0
40 6.7180466544 2.6883696531 0.0 0.1 3.3829224899 -0.0291306303 -0.0071698241 0.0
41 5.7886225432 3.1265787519 0.0 0.1 -3.0069988999 -0.0297286778 -0.0040256325 0.0
42 3.9776993207 0.2698531498 0.0 0.1 2.710937103 -0.0272607682 0.0125239976 0.0
43 5.4867373925 5.8233037877 0.0 0.1 -0.9629737079 0.0171324425 -0.0246268027 0.0
44 3.1304269502 0.9869483099 0.0 0.1 2.574662908 -0.0253066144 0.0161113398 0.0
45 0.8592821016 0.0117645049 0.0 0.1 1.4057261328 0.0049296471 0.0295922047 0.0
46 2.4809847987 1.4174432137 0.0 0.1 -3.3091978772 -0.0295796128 0.0050046483 0.0
47 6.4756548866 1.2109092024 0.0 0.1 0.2685872523 0.0289244028 0.0079610882 0.0
48 2.8232981692 4.7182092654 0.0 0.1 -0.543279647 0.0256805366 -0.0155083861 0.0
49 4.6431512568 5.1880827086 0.0 0.1 -0.6090728259 0.0246053644 -0.0171632177 0.0
50 2.9011565677 0.3994358725 0.0 0.1 3.3954025047 -0.0290388846 -0.007532807 0.0
51 3.0559597788 5.9618226177 0.0 0.1 2.1085024169 -0.015365014 0.0257665742 0.0
52 3.3502097752 4.4721193613 0.0 0.1 -0.949831161 0.0174546125 -0.0243995185 0.0
53 3.0941351945 0.6430893096 0.0 0.1 2.6182510107 -0.0259846182 0.014993319 0.0
54 6.041729766 6.8451983005 0.0 0.1 -0.9855823337 0.0165713334 -0.025007817 0.0
55 3.5525346131 3.9736194857 0.0 0.1 -1.683651458 -0.0033784717 -0.0298091585 0.0
56 4.5450016994 2.7025806817 0.0 0.1 2.973803525 -0.0295786919 0.0050100881 0.0
57 2.5944885671 4.4284041699 0.0 0.1 -0.7109397505 0.0227324694 -0.0195763846 0.0
58 4.6498545788 2.9458354305 0.0 0.1 2.5805671707 -0.0254012983 0.0159616429 0.0
59 0.2651785644 4.6932021619 0.0 0.1 1.2756015706 0.0087277856 0.028702365 0.0
60 5.7563747934 3.8963087145 0.0 0.1 -2.9745711649 -0.0295825292 -0.0049873808 0.0
61 5.9273318655 5.6557842372 0.0 0.1 -1.5594041565 3.4175771659e-04 -0.0299980533 0.0
62 3.3622757667 3.1685739498 0.0 0.1 -1.4393329409 0.0039325512 -0.0297411338 0.0
63 1.3663277255 5.7621704741 0.0 0.1 1.0409825637 0.0151611794 0.0258870361 0.0
64 5.3792700114 2.7422166407 0.0 0.1 2.5037326058 -0.0241011567 0.0178643289 0.0
65 5.8853553826 5.9245061785 0.0 0.1 -1.1471079822 0.0123337638 -0.0273473632 0.0
66 2.162246817 2.4671011563 0.0 0.1 -2.0561003195 -0.0139943182 -0.0265359955 0.0
67 3.1195818663 2.6213638928 0.0 0.1 -1.5650533588 1.722880936e-04 -0.0299995053 0.0
68 3.9941884359 5.8728505091 0.0 0.1 2.6418992668 -0.0263318856 0.0143746931 0.0
69 4.2746819805 0.4596015414 0.0 0.1 2.3394270165 -0.0208545463 0.0215658966 0.0
70 1.4956834763 4.057331834 0.0 0.1 2.4611265131 -0.0233183859 0.0188746624 0.0
71 5.9161511057 4.7351922208 0.0 0.1 -2.3640272932 -0.0213787098 -0.0210463955 0.0
72 6.0231610142 2.1420964564 0.0 0.1 2.524703701 -0.0244704643 0.0173550102 0.0
73 2.4736896516 2.1988513022 0.0 0.1 -2.1251008218 -0.0157905619 -0.0255080018 0.0
74 5.3169579714 4.955618671 0.0 0.1 -0.9448140469 0.0175768075 -0.02431164 0.0
75 5.6325233766 6.936754335 0.0 0.1 -1.5594302041 3.4097633908e-04 -0.0299980622 0.0
76 2.7207507848 2.990455921 0.0 0.1 -2.0266923154 -0.0132080091 -0.0269360074 0.0
77 5.5693247389 1.7521092849 0.0 0.1 2.2073483789 -0.0178327894 0.0241245025 0.0
78 3.2585300045 3.2279449893 0.0 0.1 -1.0392155548 0.0152068983 -0.0258602058 0.0
79 1.963819819 0.6504437198 0.0 0.1 -3.2493521356 -0.0298259869 0.0032265315 0.0
80 6.5782648266 0.6602498802 0.0 0.1 -0.1982148567 0.0294125901 -0.0059075837 0.0
81 0.7849016891 2.9660141096 0.0 0.1 -2.46792464 -0.0234461584 -0.0187157062 0.0
82 5.9416384253 3.9938776762 0.0 0.1 -2.6506416766 -0.0264565472 -0.0141439426 0.0
83 3.1459818152 4.149872464 0.0 0.1 -0.9971708105 0.0162804246 -0.02519817 0.0
84 3.1787896635 6.964949261 0.0 0.1 2.8520342619 -0.0287511018 0.0085658709 0.0
85 6.682410443 5.6101891019 0.0 0.1 -1.7472233221 -0.0052653948 -0.0295343125 0.0
86 4.5546488877 1.2156276288 0.0 0.1 1.7817606015 -0.0062820868 0.0293348834 0.0
87 6.7669319183 4.3597469608 0.0 0.1 -2.2238766802 -0.0182290725 -0.0238264751 0.0
88 0.2134764867 6.5291898586 0.0 0.1 1.2759664797 0.0087173113 0.028705548 0.0
89 2.1702255986 6.576443186 0.0 0.1 1.2198909926 0.0103124434 0.0281718567 0.0
90 1.6027777985 1.5954214517 0.0 0.1 -2.6150751929 -0.0259368712 -0.0150757657 0.0
91 3.6679765783 2.0799627537 0.0 0.1 -2.6318350336 -0.0261858842 -0.0146389709 0.0
92 6.6145443107 0.4978106814 0.0 0.1 6.9656209533e-04 0.0299999927 2.089686117e-05 0.0
93 3.6112467726 5.5131053999 0.0 0.1 1.8689753611 -0.0088134025 0.0286761911 0.0
94 3.6130014014 6.6732654476 0.0 0.1 2.994416848 -0.0296756753 0.0043993518 0.0
95 3.4818449741 1.0950712435 0.0 0.1 2.4847948792 -0.0237585455 0.0183175194 0.0
96 0.6529596604 5.0731512963 0.0 0.1 0.9339717662 0.0178393628 0.0241196421 0.0
97 5.973472803 1.9568497223 0.0 0.1 2.6605214963 -0.0265949933 0.0138818706 0.0
98 4.8882623091 0.4773546059 0.0 0.1 1.6271911225 -0.0016909472 0.029952307 0.0
99 3.3139630963 4.4848520346 0.0 0.1 -0.5322720958 0.0258496867 -0.0152247724 0.0
ITEM: TIMESTEP
3
ITEM: NUMBER OF ATOMS
100
ITEM: BOX BOUNDS ff ff ff
0.0 7.0
0.0 7.0
0.0 2.0
ITEM: ATOMS id x y z radius Angle fx fy fz
0 5.2069861632 0.4654047262 0.0 0.1 0.9377775449 0.0177474399 0.0241873599 0.0
1 1.7659070949 5.7283834694 0.0 0.1 1.4277286148 0.0042774045 0.0296934978 0.0
2 4.8484300588 2.1038654769 0.0 0.1 2.8374643469 -0.0286232506 0.008983848 0.0
3 0.734010596 3.217781579 0.0 0.1 3.5008165124 -0.0280850987 -0.0105464322 0.0
4 1.053009612 1.867818093 0.0 0.1 -2.0497945501 -0.0138267112 -0.0266237123 0.0
5 2.099107881 1.4991637435 0.0 0.1 -2.9672719875 -0.0295453377 -0.0052031742 0.0
6 5.5664108344 3.3098660957 0.0 0.1 2.7737113786 -0.0279927425 0.0107891783 0.0
7 1.2938015696 5.8096083071 0.0 0.1 1.5099010636 0.001825729 0.0299443937 0.0
8 4.8279135081 2.2134837305 0.0 0.1 3.0486378022 -0.0298704842 0.0027846313 0.0
9 3.3740299357 1.7643436351 0.0 0.1 -2.9866021493 -0.0296403899 -0.0046311215 0.0
10 2.6129240457 0.1163986254 0.0 0.1 2.9169805989 -0.0292464176 0.0066818454 0.0
11 4.2129725316 6.961952812 0.0 0.1 2.9168352692 -0.0292454462 0.0066860957 0.0
12 5.8398519925 0.4293296177 0.0 0.1 0.5339177346 0.0258245973 0.0152672911 0.0
13 0.3608903423 1.023442617 0.0 0.1 -2.175655512 -0.0170593875 -0.0246774654 0.0
14 6.461720134 0.7036753319 0.0 0.1 -0.1349028023 0.0297274323 -0.0040348199 0.0
15 3.0864881927 4.2775437295 0.0 0.1 -1.0336193477 0.0153513785 -0.0257747004 0.0
16 4.865990104 2.7378422471 0.0 0.1 3.358421665 -0.0292975364 -0.0064540191 0.0
17 1.2406771527 6.0526405499 0.0 0.1 0.941311609 0.0176618495 0.0242499293 0.0
18 3.2903911536 2.4911298242 0.0 0.1 -2.3652208261 -0.0214038142 -0.0210208644 0.0
19 3.3508825853 1.2478868699 0.0 0.1 2.758723177 -0.027827894 0.0112075116 0.0
20 5.5274765497 0.1269752872 0.0 0.1 1.1523665057 0.0121897871 0.0274118421 0.0
21 4.6712997479 2.9888487432 0.0 0.1 3.2224077928 -0.029902087 -0.002421816 0.0
22 6.3525656075 6.6928779512 0.0 0.1 -1.7441943986 -0.0051759136 -0.0295501255 0.0
23 5.1074154684 3.7336409391 0.0 0.1 3.3197770586 -0.0295250135 -0.0053172905 0.0
24 2.2358165074 0.2950555475 0.0 0.1 2.8589412709 -0.0288095801 0.008367084 0.0
25 0.7616800057 3.0897821091 0.0 0.1 -3.2583756701 -0.0297956583 0.0034955323 0.0
26 5.0093011538 5.5485316406 0.0 0.1 -0.8031372148 0.0208335835 -0.0215861483 0.0
27 1.477422658 4.7764548032 0.0 0.1 1.200576083 0.0108546229 0.0279674304 0.0
28 5.0879227279 2.4358225359 0.0 0.1 2.9447635845 -0.0294207485 0.0058668184 0.0
29 3.1285159083 5.9402411065 0.0 0.1 2.4009526936 -0.0221411067 0.0202428109 0.0
30 5.6502630798 2.7605202419 0.0 0.1 2.9050817786 -0.029164843 0.007029362 0.0
31 2.9980586336 0.1221008228 0.0 0.1 2.595413541 -0.0256354627 0.0155827806 0.0
32 3.0856061826 3.2310239239 0.0 0.1 -1.3568867215 0.0063684604 -0.0293162534 0.0
33 4.3860477201 2.7339793676 0.0 0.1 -3.3714808643 -0.0292107562 0.0068360603 0.0
34 3.9421457137 6.7037702422 0.0 0.1 2.264161243 -0.0191738626 0.0230729928 0.0
35 2.4992276458 6.0892901575 0.0 0.1 1.8473711872 -0.0081918685 0.0288598907 0.0
36 3.2601788479 3.613288093 0.0 0.1 -1.6898129825 -0.0035620763 -0.0297877762 0.0
37 5.3923696538 1.2438120703 0.0 0.1 1.2610568518 0.0091443156 0.0285723904 0.0
38 6.5397546385 4.5874695187 0.0 0.1 -2.0918285014 -0.0149332684 -0.0260191755 0.0
39 0.6275774082 1.5483743146 0.0 0.1 -2.1708186218 -0.0169398262 -0.0247596908 0.0
40 6.688916024 2.681199829 0.0 0.1 2.4625655617 -0.0233455233 0.0188410866 0.0
41 5.7588938654 3.1225531194 0.0 0.1 2.5682278535 -0.0252024138 0.0162738545 0.0
42 3.9504385524 0.2823771473 0.0 0.1 1.9943826795 -0.0123309745 0.027348621 0.0
43 5.503869835 5.7986769849 0.0 0.1 -1.4832630911 0.0026226449 -0.0298851424 0.0
44 3.1051203358 1.0030596496 0.0 0.1 2.5948500593 -0.025626678 0.0155972233 0.0
45 0.8642117488 0.0413567096 0.0 0.1 1.4701984165 0.0030128497 0.0298483289 0.0
46 2.4514051859 1.422447862 0.0 0.1 -3.5882030078 -0.0270574892 0.0129573253 0.0
47 6.5045792893 1.2188702906 0.0 0.1 1.3778331576 0.0057530372 0.0294432091 0.0
48 2.8489787058 4.7027008793 0.0 0.1 -1.0912769242 0.013840585 -0.0266165025 0.0
49 4.6677566212 5.1709194909 0.0 0.1 -1.3997540175 0.0051062862 -0.0295622367 0.0
50 2.8721176831 0.3919030655 0.0 0.1 3.148806707 -0.0299992194 -2.1641972447e-04 0.0
51 3.0405947648 5.9875891919 0.0 0.1 1.9782325507 -0.0118877018 0.0275441926 0.0
52 3.3676643877 4.4477198428 0.0 0.1 -1.230330195 0.0100177951 -0.0282779734 0.0
53 3.0681505762 0.6580826286 0.0 0.1 2.6324324714 -0.0261946254 0.0146233239 0.0
54 6.0583010994 6.8201904835 0.0 0.1 -1.9521420075 -0.0111650946 -0.0278449396 0.0
55 3.5491561414 3.9438103272 0.0 0.1 -0.8964378213 0.0187318911 -0.0234332298 0.0
56 4.5154230074 2.7075907698 0.0 0.1 2.9617988071 -0.0295164174 0.0053648024 0.0
57 2.6172210365 4.4088277853 0.0 0.1 -1.2434760895 0.009645201 -0.0284072191 0.0
58 4.6244532805 2.9617970734 0.0 0.1 2.7910659561 -0.0281757594 0.0103017758 0.0
59 0.27390635 4.7219045269 0.0 0.1 0.6830016817 0.0232704535 0.0189337264 0.0
60 5.7267922642 3.8913213337 0.0 0.1 -2.748810684 -0.0277154343 -0.0114828003 0.0
61 5.9276736232 5.6257861839 0.0 0.1 -1.7003039689 -0.0038743777 -0.029748768 0.0
62 3.3662083179 3.138832816 0.0 0.1 -1.466367375 0.0031271775 -0.0298365675 0.0