ITEM: TIMESTEP
0
ITEM: NUMBER OF ATOMS
40
ITEM: BOX BOUNDS ff ff ff
0.0 7.0
0.0 7.0
0.0 2.0
ITEM: ATOMS id x y z radius Angle fx fy fz
0 1.2279518065 6.4377894171 0.0 0.1 4.8194910924 0.0032069241 -0.0298281015 0.0
1 1.3113876348 4.1504576361 0.0 0.1 5.643961848 0.0240767779 -0.017897172 0.0
2 6.611994496 5.3621972303 0.0 0.1 3.7183672215 -0.0251467773 -0.0163596941 0.0
3 3.2642543316 3.2577610857 0.0 0.1 5.2664069792 0.0157832533 -0.0255125247 0.0
4 5.7929619195 2.2915054629 0.0 0.1 5.6280390174 0.0237887642 -0.0182782575 0.0
5 5.6603128906 5.871603704 0.0 0.1 3.7628610227 -0.0243942251 -0.0174620097 0.0
6 3.9098445876 3.8185293074 0.0 0.1 3.1481449881 -0.029999356 -1.9656862962e-04 0.0
7 1.1412096853 0.6441811136 0.0 0.1 3.6313185949 -0.0264738541 -0.0141115218 0.0
8 3.9052507815 5.593409064 0.0 0.1 1.2647843614 0.0090377484 0.0286062773 0.0
9 4.801686769 0.2996666887 0.0 0.1 3.1764140877 -0.0299818139 -0.0010444319 0.0
10 2.6299817683 3.8300952949 0.0 0.1 2.6795964565 -0.0268549351 0.0133720776 0.0
11 4.2851230203 2.0659391301 0.0 0.1 6.0688725982 0.0293136839 -0.0063802773 0.0
12 4.7109052522 4.9995548506 0.0 0.1 5.5663004989 0.0226156856 -0.0197111837 0.0
13 5.4901378451 0.5815913 0.0 0.1 0.5933792627 0.0248716754 0.0167749742 0.0
14 2.039516042 2.6576655643 0.0 0.1 2.8919829449 -0.0290702672 0.0074107735 0.0
15 6.2217172888 3.9639775741 0.0 0.1 3.4716814949 -0.0283804065 -0.0097238122 0.0
16 5.4329126287 1.7610395097 0.0 0.1 5.5828590163 0.0229389583 -0.0193340164 0.0
17 0.1740449883 5.8637113264 0.0 0.1 1.1363687514 0.0126267365 0.0272133336 0.0
18 2.1820036087 2.448041045 0.0 0.1 1.3580625108 0.0063339862 0.0293237211 0.0
19 0.6546717659 5.1894196565 0.0 0.1 6.116645404 0.0295849276 -0.0049731337 0.0
20 2.8335914749 2.1050355493 0.0 0.1 0.6290852787 0.0242569822 0.0176521617 0.0
21 4.4508730853 6.763709401 0.0 0.1 5.4105529217 0.0192843692 -0.0229807116 0.0
22 5.6535697014 4.5994316869 0.0 0.1 1.472762798 0.0029362973 0.0298559568 0.0
23 1.1990045829 5.4672002048 0.0 0.1 1.8850895815 -0.0092743327 0.0285304531 0.0
24 0.7878039232 4.841350747 0.0 0.1 4.4537905695 -0.0076717745 -0.0290024805 0.0
25 5.5463746677 1.4421274436 0.0 0.1 3.3300827664 -0.0294686481 -0.0056212789 0.0
26 1.1753553996 1.3347818428 0.0 0.1 4.1434583798 -0.0161619424 -0.0252743273 0.0
27 5.292616504 2.6604146021 0.0 0.1 1.1005218772 0.0135939288 0.0267433188 0.0
28 6.7755374626 6.0968550566 0.0 0.1 1.4434059412 0.0038113833 0.0297569044 0.0
29 0.5637499774 2.6132672369 0.0 0.1 2.169883041 -0.0169166541 0.0247755285 0.0
30 6.6458858879 1.2603857659 0.0 0.1 3.3744572998 -0.0291902798 -0.0069229738 0.0
31 4.9070896903 5.0502331675 0.0 0.1 4.210280135 -0.0144382547 -0.0262970873 0.0
32 4.8524558337 2.8301207359 0.0 0.1 5.8409548808 0.0271139816 -0.0128386916 0.0
33 3.9988586541 3.5853284468 0.0 0.1 3.2683548898 -0.0297592926 -0.0037926908 0.0
34 6.1069495177 1.4371370681 0.0 0.1 3.1519663907 -0.0299983858 -3.1120653071e-04 0.0
35 1.4288367877 6.5962225104 0.0 0.1 4.3654868593 -0.0101995831 -0.0282129138 0.0
36 6.407007201 6.5286182512 0.0 0.1 1.8680112104 -0.0087857502 0.0286846752 0.0
37 3.7675778219 6.1696252651 0.0 0.1 5.4209196596 0.0195215637 -0.0227795643 0.0
38 1.8065865469 2.2417577851 0.0 0.1 2.0615851628 -0.0141396527 0.0264588401 0.0
39 4.8316915286 0.8919192765 0.0 0.1 1.4295986282 0.0042218698 0.0297014447 0.0
ITEM: TIMESTEP
1
ITEM: NUMBER OF ATOMS
40
ITEM: BOX BOUNDS ff ff ff
0.0 7.0
0.0 7.0
0.0 2.0
ITEM: ATOMS id x y z radius Angle fx fy fz
0 1.2311587306 6.4079613156 0.0 0.1 -1.7107806917 -0.004185829 -0.0297065453 0.0
1 1.3354644127 4.132560464 0.0 0.1 -0.8116532168 0.0206490026 -0.0217627822 0.0
2 6.5868477187 5.3458375362 0.0 0.1 2.9814013758 -0.0296159037 0.0047852111 0.0
3 3.2800375849 3.232248561 0.0 0.1 -3.0457633173 -0.0298623565 -0.002870482 0.0
4 5.8167506836 2.2732272054 0.0 0.1 -1.1692735777 0.0117246131 -0.0276140082 0.0
5 5.6359186656 5.8541416943 0.0 0.1 2.7291150995 -0.027483913 0.0120264096 0.0
6 3.8798452316 3.8183327387 0.0 0.1 -2.9170743293 -0.0292470438 -0.006679104 0.0
7 1.1147358312 0.6300695918 0.0 0.1 -2.3484497223 -0.0210482775 -0.0213768569 0.0
8 3.9142885299 5.6220153414 0.0 0.1 -0.3688927442 0.0279818152 -0.0108174866 0.0
9 4.7717049552 0.2986222568 0.0 0.1 1.6114376806 -0.001218905 0.0299752276 0.0
10 2.6031268331 3.8434673724 0.0 0.1 2.7795834922 -0.0280556148 0.0106246167 0.0
11 4.3144367041 2.0595588528 0.0 0.1 -0.3631385537 0.0280435975 -0.0106562957 0.0
12 4.7335209378 4.9798436669 0.0 0.1 -0.2563891353 0.0290193588 -0.0076076814 0.0
13 5.5150095205 0.5983662743 0.0 0.1 1.7860578922 -0.0064080889 0.0293076167 0.0
14 2.0104457747 2.6650763377 0.0 0.1 1.6946695404 -0.0037066998 0.0297701256 0.0
15 6.1933368823 3.9542537618 0.0 0.1 2.9479123038 -0.0294390756 0.0057741518 0.0
16 5.455851587 1.7417054933 0.0 0.1 1.0830404313 0.0140593397 0.0265016031 0.0
17 0.1866717248 5.89092466 0.0 0.1 0.779741274 0.0213328641 0.0210928639 0.0
18 2.1883375949 2.4773647661 0.0 0.1 1.3795282585 0.0057031197 0.0294529188 0.0
19 0.6842566935 5.1844465227 0.0 0.1 0.1497988 0.0296640337 0.0044771757 0.0
20 2.8578484571 2.122687711 0.0 0.1 1.2574230936 0.0092480801 0.0285389736 0.0
21 4.4701574545 6.7407286895 0.0 0.1 -1.3252642936 0.0072921731 -0.0291002442 0.0
22 5.6565059988 4.6292876437 0.0 0.1 3.4529709588 -0.028557366 -0.0091911286 0.0
23 1.1897302502 5.4957306578 0.0 0.1 -0.5744663454 0.0251844721 -0.0163016062 0.0
24 0.7801321486 4.8123482665 0.0 0.1 -0.7211844459 0.0225307259 -0.0198082405 0.0
25 5.5169060196 1.4365061646 0.0 0.1 2.7362818096 -0.0275693962 0.0118291332 0.0
26 1.1591934572 1.3095075155 0.0 0.1 -2.4520975865 -0.0231470198 -0.0190844302 0.0
27 5.3062104328 2.6871579209 0.0 0.1 -0.0433214099 0.0299718532 -0.0012992358 0.0
28 6.7793488459 6.126611961 0.0 0.1 2.3035142524 -0.0200667749 0.0223007745 0.0
29 0.5637499774 2.6132672369 0.0 0.1 2.169883041 -0.0169166541 0.0247755285 0.0
30 6.6166956082 1.2534627921 0.0 0.1 3.144517351 -0.0299998717 -8.7740798055e-05 0.0
31 4.8926514356 5.0239360802 0.0 0.1 -2.2222346238 -0.0181899235 -0.0238563761 0.0
32 4.8795698153 2.8172820444 0.0 0.1 -0.3400788165 0.0282818513 -0.0100068419 0.0
33 3.9690993615 3.581535756 0.0 0.1 -2.2824724556 -0.019593119 -0.0227180476 0.0
34 6.0769511319 1.4368258615 0.0 0.1 2.916317445 -0.0292419801 0.0067012388 0.0
35 1.4186372046 6.5680095966 0.0 0.1 -1.490976404 0.0023920557 -0.0299044824 0.0
36 6.3982214508 6.5573029264 0.0 0.1 2.849089095 -0.0287257493 0.0086505104 0.0
37 3.7870993856 6.1468457008 0.0 0.1 -0.9399261295 0.0176954303 -0.0242254359 0.0
38 1.7924468942 2.2682166252 0.0 0.1 1.7605555229 -0.0056586726 0.0294614905 0.0
39 4.8359133985 0.9216207211 0.0 0.1 1.7218932942 -0.0045156808 0.0296581966 0.0
ITEM: TIMESTEP
2
ITEM: NUMBER OF ATOMS
40
ITEM: BOX BOUNDS ff ff ff
0.0 7.0
0.0 7.0
0.0 2.0
ITEM: ATOMS id x y z radius Angle fx fy fz
0 1.2269729016 6.3782547703 0.0 0.1 -1.0064173164 0.016046737 -0.0253476278 0.0
1 1.3561134153 4.1107976818 0.0 0.1 -1.1201460527 0.0130665294 -0.027004922 0.0
2 6.557231815 5.3506227473 0.0 0.1 3.1484606331 -0.0299992925 -2.0603776539e-04 0.0
3 3.2501752285 3.229378079 0.0 0.1 -3.3006890507 -0.0296211252 0.0047527824 0.0
4 5.8284752967 2.2456131972 0.0 0.1 0.5672648699 0.0253012136 0.0161198197 0.0
5 5.6084347526 5.8661681039 0.0 0.1 3.2812004746 -0.0297081194 -0.0041746429 0.0
6 3.8505981879 3.8116536347 0.0 0.1 -3.0062257737 -0.0297255566 -0.0040486153 0.0
7 1.0936875536 0.6086927349 0.0 0.1 -2.8627104362 -0.0288409123 -0.0082584368 0.0
8 3.9422703452 5.6111978548 0.0 0.1 -1.3297111053 0.0071626981 -0.0291323833 0.0
9 4.7704860502 0.3285974844 0.0 0.1 2.1602448202 -0.0166770801 0.0249374217 0.0
10 2.5750712183 3.8540919891 0.0 0.1 2.5230027209 -0.0244409084 0.0173966088 0.0
11 4.3424803017 2.0489025571 0.0 0.1 0.4750765948 0.0266777307 0.0137221968 0.0
12 4.7625402966 4.9722359855 0.0 0.1 -1.6854050142 -0.0034307386 -0.0298031883 0.0
13 5.5086014316 0.627673891 0.0 0.1 1.9970112569 -0.0124028198 0.0273161136 0.0
14 2.006739075 2.6948464633 0.0 0.1 1.2079063929 0.0106493232 0.028046246 0.0
15 6.1638978067 3.9600279136 0.0 0.1 -2.8171925367 -0.0284352631 -0.0095622075 0.0
16 5.4699109267 1.7682070963 0.0 0.1 1.2139160049 0.0104805848 0.0281097375 0.0
17 0.2080045889 5.9120175239 0.0 0.1 -0.0024572881 0.0299999094 -7.3718569681e-05 0.0
18 2.1940407147 2.5068176849 0.0 0.1 1.5767966623 -1.8000898624e-04 0.0299994599 0.0
19 0.7139207273 5.1889236984 0.0 0.1 -0.5336234053 0.0258290898 -0.0152596895 0.0
20 2.8670965372 2.1512266846 0.0 0.1 1.1421328798 0.0124696665 0.0272856632 0.0
21 4.4774496276 6.7116284453 0.0 0.1 -1.3659024844 0.0061038967 -0.0293724777 0.0
22 5.6279486327 4.6200965151 0.0 0.1 -2.3691074618 -0.0214853527 -0.020937517 0.0
23 1.2149147223 5.4794290516 0.0 0.1 -0.7875978686 0.0211664894 -0.0212598149 0.0
24 0.8026628745 4.792540026 0.0 0.1 -0.7747768288 0.0214373152 -0.0209866986 0.0
25 5.4893366234 1.4483352978 0.0 0.1 1.8929488215 -0.0094982716 0.0284566835 0.0
26 1.1360464375 1.2904230853 0.0 0.1 3.1904564282 -0.0299641921 -0.00146533 0.0
27 5.336182286 2.685858685 0.0 0.1 0.7585689653 0.0217746342 0.0206365042 0.0
28 6.759282071 6.1489127355 0.0 0.1 3.3384545548 -0.0294205559 -0.0058677844 0.0
29 0.5637499774 2.6132672369 0.0 0.1 2.169883041 -0.0169166541 0.0247755285 0.0
30 6.5866957365 1.2533750513 0.0 0.1 2.8472608439 -0.0287098859 0.0087030138 0.0
31 4.8744615121 5.000079704 0.0 0.1 -1.7648225877 -0.0057843348 -0.0294370765 0.0
32 4.9078516667 2.8072752025 0.0 0.1 0.6595458465 0.023708118 0.0183827403 0.0
33 3.9495062425 3.5588177084 0.0 0.1 3.4468979377 -0.028612657 -0.0090175307 0.0
34 6.0477091518 1.4435271003 0.0 0.1 1.4603099222 0.0033078526 0.0298170775 0.0
35 1.4210292603 6.5381051142 0.0 0.1 -0.5757203007 0.0251640108 -0.0163331736 0.0
36 6.3694957016 6.5659534368 0.0 0.1 -2.701542498 -0.027141909 -0.0127795453 0.0
37 3.8047948159 6.1226202649 0.0 0.1 -1.1667303503 0.0117948038 -0.0275841006 0.0
38 1.7867882216 2.2976781158 0.0 0.1 1.7552450069 -0.0055021378 0.0294911254 0.0
39 4.8313977177 0.9512789178 0.0 0.1 2.1688426228 -0.0168908681 0.0247931155 0.0
ITEM: TIMESTEP
3
ITEM: NUMBER OF ATOMS
40
ITEM: BOX BOUNDS ff ff ff
0.0 7.0
0.0 7.0
0.0 2.0
ITEM: ATOMS id x y z radius Angle fx fy fz
0 1.2430196386 6.3529071425 0.0 0.1 -0.6111150733 0.0245702616 -0.0172134321 0.0
1 1.3691799447 4.0837927598 0.0 0.1 -0.9383392122 0.0177338518 -0.0241973242 0.0
2 6.5272325225 5.3504167096 0.0 0.1 -3.1121689524 -0.0299870146 -8.8258367201e-04 0.0
3 3.2205541033 3.2341308614 0.0 0.1 3.3039288691 -0.0296055716 -0.0048487244 0.0
4 5.8537765103 2.2617330169 0.0 0.1 1.1299721682 0.0128005494 0.0271320094 0.0
5 5.5787266332 5.861993461 0.0 0.1 -2.7941009975 -0.0282068959 -0.0102162138 0.0
6 3.8208726313 3.8076050194 0.0 0.1 -3.0064916533 -0.029726632 -0.0040407117 0.0
7 1.0648466413 0.6004342981 0.0 0.1 -2.8575909062 -0.0287982552 -0.0084059798 0.0
8 3.9494330433 5.5820654715 0.0 0.1 -1.3093790541 0.0077534979 -0.0289807396 0.0
9 4.7538089701 0.3535349061 0.0 0.1 1.9303769884 -0.0105564523 0.0280813339 0.0
10 2.55063031 3.8714885979 0.0 0.1 3.5296973831 -0.0277688387 -0.0113530434 0.0
11 4.3691580323 2.0626247539 0.0 0.1 1.2065206084 0.010688179 0.0280314614 0.0
12 4.7591095581 4.9424327972 0.0 0.1 -1.7796913679 -0.0062213727 -0.0293478197 0.0
13 5.4961986118 0.6549900046 0.0 0.1 1.7602579421 -0.0056499051 0.0294631731 0.0
14 2.0173883981 2.7228927093 0.0 0.1 1.6866079052 -0.003466586 0.0297990399 0.0
15 6.1354625436 3.9504657062 0.0 0.1 -2.0731240016 -0.0144440089 -0.0262939272 0.0
16 5.4803915115 1.7963168338 0.0 0.1 1.2234783527 0.0102113147 0.0282086698 0.0
17 0.2380044983 5.9119438054 0.0 0.1 -0.3521059376 0.0281594553 -0.0103462592 0.0
18 2.1938607057 2.5368171448 0.0 0.1 1.1748800069 0.0115696136 0.0276793071 0.0
19 0.739749817 5.1736640089 0.0 0.1 -0.5174788834 0.0260720734 -0.0148407206 0.0
20 2.8795662037 2.1785123478 0.0 0.1 1.9708363752 -0.0116836569 0.0276313619 0.0
21 4.4835535243 6.6822559676 0.0 0.1 -1.5352205442 0.0010670484 -0.0299810175 0.0
22 5.60646328 4.5991589981 0.0 0.1 -2.4806373196 -0.0236821842 -0.0184161384 0.0
23 1.2360812116 5.4581692367 0.0 0.1 -0.4187552104 0.0274078743 -0.012198706 0.0
24 0.8241001897 4.7715533274 0.0 0.1 -0.4628342235 0.0268437196 -0.013394578 0.0
25 5.4798383517 1.4767919813 0.0 0.1 1.6231492386 -0.00156987 0.029958897 0.0
26 1.1060822454 1.2889577554 0.0 0.1 2.6199363821 -0.0260098506 0.014949504 0.0
27 5.3579569202 2.7064951893 0.0 0.1 1.0790659709 0.014164558 0.0264455156 0.0
28 6.7298615151 6.1430449511 0.0 0.1 -3.3569366486 -0.0293070884 0.0064105047 0.0
29 0.5637499774 2.6132672369 0.0 0.1 2.169883041 -0.0169166541 0.0247755285 0.0
30 6.5579858505 1.2620780651 0.0 0.1 1.3130799021 0.0076461918 0.0290092356 0.0
31 4.8686771773 4.9706426276 0.0 0.1 -1.6356515442 -0.0019442928 -0.0299369291 0.0
32 4.9315597847 2.8256579428 0.0 0.1 1.371168595 0.0059491341 0.029404214 0.0
33 3.9208935855 3.5498001778 0.0 0.1 3.2490255009 -0.0298270392 -0.0032167891 0.0
34 6.0510170044 1.4733441778 0.0 0.1 1.0632113735 0.0145820432 0.026217628 0.0
35 1.4461932711 6.5217719406 0.0 0.1 -0.4046992492 0.0275766257 -0.0118122697 0.0
36 6.3423537926 6.5531738915 0.0 0.1 -2.6403240156 -0.0263092092 -0.0144161546 0.0
37 3.8165896197 6.0950361643 0.0 0.1 -1.0267939086 0.0155269432 -0.0256693209 0.0
38 1.7812860838 2.3271692412 0.0 0.1 1.7867196141 -0.006427481 0.0293033699 0.0
39 4.8145068497 0.9760720333 0.0 0.1 2.0747040016 -0.0144855353 0.0262710728 0.0
ITEM: TIMESTEP
4
ITEM: NUMBER OF ATOMS
40
ITEM: BOX BOUNDS ff ff ff
0.0 7.0
0.0 7.0
0.0 2.0
ITEM: ATOMS id x y z radius Angle fx fy fz
0 1.2675899002 6.3356937104 0.0 0.1 -0.0847556529 0.0298923117 -0.0025396265 0.0
1 1.3869137965 4.0595954356 0.0 0.1 -0.5194095183 0.0260433728 -0.0148910286 0.0
2 6.4972455079 5.3495341259 0.0 0.1 -2.6312483195 -0.0261772908 -0.014654332 0.0
3 3.1909485316 3.229282137 0.0 0.1 2.6910978872 -0.0270069536 0.0130623298 0.0
4 5.8665770597 2.2888650264 0.0 0.1 1.2670256689 0.0089736103 0.0286264618 0.0
5 5.5505197374 5.8517772472 0.0 0.1 -2.523240096 -0.0244450372 -0.0173908066 0.0
6 3.7911459993 3.8035643076 0.0 0.1 3.3794836453 -0.0291551139 -0.0070696062 0.0
7 1.0360483861 0.5920283183 0.0 0.1 2.426220344 -0.0226454729 0.019676955 0.0
8 3.9571865412 5.5530847319 0.0 0.1 -1.7020002701 -0.003924835 -0.0297421531 0.0
9 4.7432525178 0.38161624 0.0 0.1 1.9470332282 -0.0110226958 0.027901616 0.0
10 2.5228614712 3.8601355545 0.0 0.1 2.6966842448 -0.0270795026 0.0129112562 0.0
11 4.3798462113 2.0906562154 0.0 0.1 0.8166261817 0.0205405222 0.0218651995 0.0
12 4.7528881854 4.9130849775 0.0 0.1 -2.2335021911 -0.0184575665 -0.0236499099 0.0
13 5.4905487067 0.6844531777 0.0 0.1 1.4969641375 0.0022129539 0.0299182693 0.0
14 2.0139218121 2.7526917493 0.0 0.1 1.5344499379 0.0010901516 0.0299801863 0.0
15 6.1210185347 3.924171779 0.0 0.1 -2.7311918073 -0.027508829 -0.0119693076 0.0
16 5.4906028262 1.8245255037 0.0 0.1 1.1143805446 0.0132220084 0.0269291384 0.0
17 0.2661639536 5.9015975462 0.0 0.1 -0.1412372433 0.0297012777 -0.0042230444 0.0
18 2.2054303193 2.5644964519 0.0 0.1 1.5149333217 0.0016750186 0.029953202 0.0
19 0.7658218904 5.1588232883 0.0 0.1 -0.8043591202 0.0208071918 -0.0216115888 0.0
20 2.8678825468 2.2061437098 0.0 0.1 2.2107174168 -0.0179139644 0.0240642864 0.0
21 4.4846205726 6.6522749501 0.0 0.1 -1.4041983688 0.0049748513 -0.0295846388 0.0
22 5.5827810958 4.5807428598 0.0 0.1 -2.2874201032 -0.0197052796 -0.0226208301 0.0
23 1.2634890859 5.4459705307 0.0 0.1 -0.5199636309 0.0260351175 -0.0149054573 0.0
24 0.8509439093 4.7581587494 0.0 0.1 -0.7140697248 0.0226710846 -0.0196474407 0.0
25 5.4782684817 1.5067508783 0.0 0.1 0.9825315283 0.0166475501 0.0249571448 0.0
26 1.0800723947 1.3039072594 0.0 0.1 1.8228484632 -0.0074817533 0.0290520803 0.0
27 5.3721214782 2.7329407049 0.0 0.1 0.9366673619 0.0177742813 0.0241676421 0.0
28 6.7005544268 6.1494554559 0.0 0.1 -2.8555640388 -0.0287811583 -0.0084643327 0.0
29 0.5637499774 2.6132672369 0.0 0.1 2.169883041 -0.0169166541 0.0247755285 0.0
30 6.5656320423 1.2910873007 0.0 0.1 0.7353983244 0.0222469075 0.0201264778 0.0
31 4.8667328845 4.9407056984 0.0 0.1 -2.4290726958 -0.0227015063 -0.0196122822 0.0
32 4.9375089187 2.8550621569 0.0 0.1 1.0884026669 0.0139170304 0.0265766112 0.0
33 3.8910665463 3.5465833886 0.0 0.1 2.3447331552 -0.0209686838 0.0214549365 0.0
34 6.0655990476 1.4995618058 0.0 0.1 1.2050797691 0.0107285567 0.0280160324 0.0
35 1.4737698968 6.5099596709 0.0 0.1 -0.1521813869 0.0296532823 -0.00454784 0.0
36 6.3160445834 6.5387577369 0.0 0.1 -2.5223579326 -0.0244296862 -0.0174123644 0.0
37 3.8321165629 6.0693668434 0.0 0.1 -1.3636200267 0.0061709222 -0.0293584693 0.0
38 1.7748586028 2.3564726111 0.0 0.1 2.244756052 -0.0187225449 0.0234406978 0.0
39 4.8000213143 1.0023431061 0.0 0.1 1.8463967439 -0.0081637423 0.0288678595 0.0
ITEM: TIMESTEP
5
ITEM: NUMBER OF ATOMS
40
ITEM: BOX BOUNDS ff ff ff
0.0 7.0
0.0 7.0
0.0 2.0
ITEM: ATOMS id x y z radius Angle fx fy fz
0 1.2974822119 6.3331540839 0.0 0.1 -0.0844188757 0.0298931653 -0.0025295593 0.0
1 1.4129571693 4.044704407 0.0 0.1 -0.6292153352 0.0242546862 -0.0176553164 0.0
2 6.4710682171 5.3348797939 0.0 0.1 -2.1328133955 -0.0159868226 -0.0253854585 0.0
3 3.163941578 3.2423444668 0.0 0.1 2.1969859266 -0.0175818474 0.0243079954 0.0
4 5.87555067 2.3174914882 0.0 0.1 1.133484501 0.012705174 0.0271768018 0.0
5 5.5260747001 5.8343864405 0.0 0.1 -2.1841779688 -0.0172690781 -0.0245311831 0.0
6 3.7619908854 3.7964947015 0.0 0.1 2.6624860599 -0.0266222138 0.0138295963 0.0
7 1.0134029132 0.6117052733 0.0 0.1 2.4025202944 -0.0221728121 0.0202080776 0.0
8 3.9532617062 5.5233425788 0.0 0.1 -1.5363882063 0.0010320399 -0.029982243 0.0
9 4.7322298219 0.409517856 0.0 0.1 1.4574267054 0.0033938078 0.0298074163 0.0
10 2.4957819686 3.8730468107 0.0 0.1 1.7914968606 -0.0065673966 0.02927233 0.0
11 4.4003867335 2.1125214148 0.0 0.1 0.9570327931 0.0172784451 0.0245245864 0.0
12 4.7344306189 4.8894350675 0.0 0.1 -1.9858860588 -0.0120981613 -0.0274524041 0.0
13 5.4927616605 0.714371447 0.0 0.1 0.9435053359 0.0176086093 0.0242886162 0.0
14 2.0150119637 2.7826719356 0.0 0.1 1.5899262004 -5.7386120622e-04 0.0299945109 0.0
15 6.0935097056 3.9122024714 0.0 0.1 -2.8365967181 -0.0286154452 -0.0090086789 0.0
16 5.5038248346 1.851454642 0.0 0.1 1.4451346594 0.0037599363 0.0297634487 0.0
17 0.2958652313 5.8973745018 0.0 0.1 -0.3883784739 0.0277657299 -0.0113606446 0.0
18 2.207105338 2.5944496539 0.0 0.1 2.0404832293 -0.0135782135 0.0267513013 0.0
19 0.7866290822 5.1372116995 0.0 0.1 -0.2810621527 0.0288228409 -0.0083212884 0.0
20 2.8499685825 2.2302079962 0.0 0.1 1.9929503466 -0.0122917895 0.027366255 0.0
21 4.4895954239 6.6226903113 0.0 0.1 -1.6560643554 -0.0025549422 -0.0298910065 0.0
22 5.5630758162 4.5581220297 0.0 0.1 -2.0631567344 -0.0141812172 -0.026436586 0.0
23 1.2895242034 5.4310650735 0.0 0.1 -0.2050914557 0.0293712709 -0.006109701 0.0
24 0.8736149938 4.7385113087 0.0 0.1 -0.8036120499 0.0208233313 -0.0215960384 0.0
25 5.4949160318 1.5317080231 0.0 0.1 1.2856626993 0.0084385706 0.0287887222 0.0
26 1.0725906414 1.3329593396 0.0 0.1 2.6208503681 -0.0260235034 0.0149257251 0.0
27 5.3898957595 2.757108347 0.0 0.1 0.9304320706 0.0179246271 0.0240563452 0.0
28 6.6717732685 6.1409911231 0.0 0.1 -2.6337278505 -0.0262135462 -0.0145893796 0.0
29 0.5637499774 2.6132672369 0.0 0.1 2.169883041 -0.0169166541 0.0247755285 0.0
30 6.5878789498 1.3112137785 0.0 0.1 1.6567910865 -0.0025766643 0.0298891419 0.0
31 4.8440313782 4.9210934163 0.0 0.1 -2.2546750882 -0.0189541292 -0.0232538381 0.0
32 4.9514259492 2.8816387681 0.0 0.1 1.013618794 0.0158637821 0.0254625297 0.0
33 3.8700978625 3.5680383251 0.0 0.1 1.9068177567 -0.0098920094 0.0283222201 0.0
34 6.0763276043 1.5275778382 0.0 0.1 1.4659824589 0.0031386618 0.0298353616 0.0
35 1.5034231791 6.5054118309 0.0 0.1 0.2678520956 0.0289302476 0.0079398221 0.0
36 6.2916148973 6.5213453725 0.0 0.1 -2.4930737855 -0.0239093786 -0.0181201991 0.0
37 3.8382874851 6.0400083742 0.0 0.1 -1.6526337933 -0.0024523844 -0.0298995955 0.0
38 1.7561360579 2.3799133089 0.0 0.1 1.9274011745 -0.0104728409 0.0281126236 0.0
39 4.791857572 1.0312109656 0.0 0.1 1.3847140432 0.0055503072 0.0294820978 0.0
ITEM: TIMESTEP
6
ITEM: NUMBER OF ATOMS
40
ITEM: BOX BOUNDS ff ff ff
0.0 7.0
0.0 7.0
0.0 2.0
ITEM: ATOMS id x y z radius Angle fx fy fz
0 1.3273753771 6.3306245247 0.0 0.1 -0.477385946 0.0266459702 -0.0137837684 0.0
1 1.4372118555 4.0270490906 0.0 0.1 -0.7355286443 0.0222442844 -0.0201293768 0.0
2 6.4550813945 5.3094943354 0.0 0.1 -2.3028976277 -0.0200530199 -0.0223131439 0.0
3 3.1463597306 3.2666524622 0.0 0.1 2.1453012684 -0.0163025782 0.0251838429 0.0
4 5.888255844 2.34466829 0.0 0.1 1.1277756098 0.0128601155 0.0271038268 0.0
5 5.5088056221 5.8098552574 0.0 0.1 -2.6197215779 -0.0260066388 -0.0149550907 0.0
6 3.7353686716 3.8103242978 0.0 0.1 1.8082506956 -0.0070568757 0.0291581979 0.0
7 0.9912301011 0.631913351 0.0 0.1 2.3464668888 -0.0210058494 0.0214185501 0.0
8 3.9542937462 5.4933603358 0.0 0.1 -1.8494907914 -0.0082530216 -0.0288424623 0.0
9 4.7356236297 0.4393252724 0.0 0.1 0.9383518035 0.0177335471 0.0241975475 0.0
10 2.489214572 3.9023191407 0.0 0.1 1.7455393694 -0.005215653 0.0295431373 0.0
11 4.4176651786 2.1370460012 0.0 0.1 1.2052151163 0.0107247647 0.0280174842 0.0
12 4.7223324576 4.8619826634 0.0 0.1 -1.7837580862 -0.0063406702 -0.0293222765 0.0
13 5.5103702699 0.7386600632 0.0 0.1 1.3221159759 0.0073837536 0.0290771419 0.0
14 2.0144381025 2.8126664464 0.0 0.1 2.3582113595 -0.0212559445 0.0211703761 0.0
15 6.0648942604 3.9031937925 0.0 0.1 -2.6476563138 -0.0264142045 -0.0142228619 0.0
16 5.507584771 1.8812180907 0.0 0.1 1.4851889502 0.0025650855 0.0298901378 0.0
17 0.3236309612 5.8860138573 0.0 0.1 -0.6357107366 0.024139497 -0.0178124868 0.0
18 2.1935271245 2.6212009552 0.0 0.1 1.6635565324 -0.0027788171 0.0298710257 0.0
19 0.8154519231 5.1288904111 0.0 0.1 -0.401844145 0.0276102385 -0.0117334875 0.0
20 2.8376767929 2.2575742511 0.0 0.1 1.682868923 -0.003355144 0.0298117931 0.0
21 4.4870404817 6.5927993048 0.0 0.1 -1.7826454159 -0.0063080403 -0.0293293135 0.0
22 5.5488945989 4.5316854437 0.0 0.1 -1.9007238003 -0.0097192324 -0.0283819753 0.0
23 1.3188954743 5.4249553725 0.0 0.1 -0.3003227869 0.0286572315 -0.0088748568 0.0
24 0.8944383252 4.7169152704 0.0 0.1 -0.0438221223 0.0299711989 -0.0013142429 0.0
25 5.5033546024 1.5604967453 0.0 0.1 1.7889550816 -0.0064929716 0.0292889283 0.0
26 1.046567138 1.3478850647 0.0 0.1 2.667125231 -0.0266860849 0.013705943 0.0
27 5.4078203866 2.7811646922 0.0 0.1 1.041589871 0.0151454552 0.0258962389 0.0
28 6.6455597223 6.1264017435 0.0 0.1 -2.961701083 -0.029515893 -0.0053676868 0.0
29 0.5637499774 2.6132672369 0.0 0.1 2.169883041 -0.0169166541 0.0247755285 0.0
30 6.5853022855 1.3411029203 0.0 0.1 1.5586045526 3.6574416531e-04 0.0299977704 0.0
31 4.8250772491 4.8978395781 0.0 0.1 -2.2702622454 -0.0193142732 -0.0229555843 0.0
32 4.9672897313 2.9071012978 0.0 0.1 1.5366088714 0.0010254239 0.02998247 0.0
33 3.8602058531 3.5963605451 0.0 0.1 1.8066711267 -0.0070108096 0.0291693083 0.0
34 6.0794662661 1.5574131998 0.0 0.1 1.7891149908 -0.0064976551 0.0292878896 0.0
35 1.5323534267 6.513351653 0.0 0.1 -0.2130228811 0.0293218889 -0.0063424624 0.0
36 6.2677055187 6.5032251734 0.0 0.1 -3.1509326184 -0.0299986915 2.8019486943e-04 0.0
37 3.8358351007 6.0101087787 0.0 0.1 -1.3573030389 0.0063562549 -0.0293189021 0.0
38 1.745663217 2.4080259325 0.0 0.1 1.7506240647 -0.0053658028 0.0295162355 0.0
39 4.7974078793 1.0606930633 0.0 0.1 1.1632093574 0.0118918539 0.0275424002 0.0
ITEM: TIMESTEP
7
ITEM: NUMBER OF ATOMS
40
ITEM: BOX BOUNDS ff ff ff
0.0 7.0
0.0 7.0
0.0 2.0
ITEM: ATOMS id x y z radius Angle fx fy fz
0 1.3540213473 6.3168407562 0.0 0.1 -0.8308693554 0.0202270194 -0.022155534 0.0
1 1.4594561399 4.0069197138 0.0 0.1 0.1209252113 0.0297809236 0.0036189214 0.0
2 6.4350283745 5.2871811915 0.0 0.1 -2.521695789 -0.0244181513 -0.0174285365 0.0
3 3.1300571524 3.2918363051 0.0 0.1 2.1887152592 -0.017380205 0.024452576 0.0
4 5.9011159595 2.3717721168 0.0 0.1 1.3307244307 0.0071331738 0.0291396265 0.0
5 5.4827989833 5.7949001668 0.0 0.1 -2.6735148706 -0.0267731156 -0.0135351499 0.0
6 3.7283117959 3.8394824957 0.0 0.1 1.9523851186 -0.0111718637 0.0278422245 0.0
7 0.9702242516 0.6533319011 0.0 0.1 2.663970685 -0.0266427162 0.0137900571 0.0
8 3.9460407245 5.4645178735 0.0 0.1 -2.032952523 -0.0133763742 -0.0268527953 0.0
9 4.7533571769 0.4635228199 0.0 0.1 1.710791546 -0.0041861514 0.0297064999 0.0
10 2.483998919 3.931862278 0.0 0.1 1.6508074602 -0.0023977738 0.0299040245 0.0
11 4.4283899433 2.1650634854 0.0 0.1 1.6221048379 -0.0015385801 0.0299605202 0.0
12 4.7159917874 4.8326603869 0.0 0.1 -1.7115201353 -0.0042077941 -0.029703442 0.0
13 5.5177540235 0.7677372051 0.0 0.1 1.3999088598 0.0051017087 0.0295630271 0.0
14 1.9931821579 2.8338368225 0.0 0.1 1.9468705289 -0.0110181561 0.027903409 0.0
15 6.0384800559 3.8889709306 0.0 0.1 -1.9012305488 -0.0097336137 -0.0283770464 0.0
16 5.5101498565 1.9111082285 0.0 0.1 1.4600527222 0.0033155214 0.0298162257 0.0
17 0.3477704582 5.8682013705 0.0 0.1 -0.6144935349 0.0245119665 -0.0172963434 0.0
18 2.1907483074 2.6510719809 0.0 0.1 1.9440481588 -0.0109393586 0.0279343952 0.0
19 0.8430621616 5.1171569236 0.0 0.1 -0.3772972981 0.0278899119 -0.0110522764 0.0
20 2.8343216489 2.2873860442 0.0 0.1 2.2650575098 -0.0191945344 0.0230557986 0.0
21 4.4807324414 6.5634699913 0.0 0.1 -1.2579093776 0.009234201 -0.0285434674 0.0
22 5.5391753665 4.5033034684 0.0 0.1 -1.8277548106 -0.0076242023 -0.0290150226 0.0
23 1.3475527058 5.4160805156 0.0 0.1 -0.198605601 0.0294102795 -0.005919076 0.0
24 0.9244095241 4.7156010275 0.0 0.1 -0.3995797199 0.0276367373 -0.0116709361 0.0
25 5.4968616308 1.5897856735 0.0 0.1 0.9660012226 0.0170578061 0.0246785585 0.0
26 1.0198810531 1.3615910077 0.0 0.1 2.6404927332 -0.026311641 0.0144117156 0.0
27 5.4229658418 2.807060931 0.0 0.1 1.4921592371 0.0023566821 0.0299072909 0.0
28 6.6160438294 6.1210340567 0.0 0.1 -2.7681839639 -0.0279326789 -0.0109437402 0.0
29 0.5468333233 2.6380427654 0.0 0.1 1.7102731447 -0.004170751 0.029708666 0.0
30 6.5856680297 1.3711006908 0.0 0.1 1.1444169258 0.0124073123 0.0273140733 0.0
31 4.8057629758 4.8748839938 0.0 0.1 -1.8447463522 -0.008116088 -0.0288812935 0.0
32 4.9683151551 2.9370837678 0.0 0.1 1.0695038133 0.0144167828 0.026308865 0.0
33 3.8531950435 3.6255298535 0.0 0.1 1.7197645947 -0.0044525372 0.029667742 0.0
34 6.0729686109 1.5867010894 0.0 0.1 1.4496355147 0.0036259377 0.0297800701 0.0
35 1.5616753157 6.5070091906 0.0 0.1 -0.6731421586 0.0234559969 -0.0187033743 0.0
36 6.2377068272 6.5035053683 0.0 0.1 -2.5607169985 -0.0250794735 -0.0164626854 0.0
37 3.8421913556 5.9807898765 0.0 0.1 -1.7440067027 -0.0051703671 -0.0295510965 0.0
38 1.7402974143 2.437542168 0.0 0.1 2.1750531177 -0.0170445188 0.0246877374 0.0
39 4.8092997331 1.0882354636 0.0 0.1 1.0543044991 0.0148149788 0.0260867093 0.0
ITEM: TIMESTEP
8
ITEM: NUMBER OF ATOMS
40
ITEM: BOX BOUNDS ff ff ff
0.0 7.0
0.0 7.0
0.0 2.0
ITEM: ATOMS id x y z radius Angle fx fy fz
0 1.3742483667 6.2946852223 0.0 0.1 -0.6746417029 0.023427924 -0.0187385265 0.0
1 1.4892370635 4.0105386352 0.0 0.1 -0.1946558041 0.0294334292 -0.0058028655 0.0
2 6.4106102232 5.2697526549 0.0 0.1 -2.7773797541 -0.0280321328 -0.010686418 0.0
3 3.1126769474 3.3162888811 0.0 0.1 1.8559187809 -0.0084382489 0.0287888165 0.0
4 5.9082491333 2.4009117433 0.0 0.1 0.957347032 0.0172707376 0.0245300147 0.0
5 5.4560258677 5.7813650169 0.0 0.1 -2.229052604 -0.0183521518 -0.0237318041 0.0
6 3.7171399323 3.8673247201 0.0 0.1 1.5475018543 6.9877097515e-04 0.0299918609 0.0
7 0.9435815355 0.6671219582 0.0 0.1 3.1393774647 -0.0299999264 6.6455612952e-05 0.0
8 3.9326643504 5.4376650782 0.0 0.1 -1.6797553493 -0.0032623067 -0.0298220951 0.0
9 4.7491710255 0.4932293198 0.0 0.1 1.3988642644 0.0051325873 0.0295576817 0.0
10 2.4816011453 3.9617663025 0.0 0.1 1.8122875428 -0.0071745251 0.0291294729 0.0
11 4.4268513632 2.1950240056 0.0 0.1 1.2518264335 0.0094076574 0.0284867685 0.0
12 4.7117839932 4.8029569448 0.0 0.1 -2.2390867489 -0.0185893523 -0.0235464643 0.0
13 5.5228557322 0.7973002321 0.0 0.1 0.9174459337 0.0182355059 0.0238215517 0.0
14 1.9821640018 2.8617402315 0.0 0.1 2.3834252967 -0.0217829202 0.0206277577 0.0
15 6.0287464422 3.8605938842 0.0 0.1 -2.0171330155 -0.0129499201 -0.0270610341 0.0
16 5.5134653779 1.9409244542 0.0 0.1 1.5522543313 5.5622799094e-04 0.0299948431 0.0
17 0.3722824247 5.8509050271 0.0 0.1 -0.813276402 0.0206136504 -0.0217962707 0.0
18 2.1798089488 2.6790063761 0.0 0.1 2.0682522384 -0.0143157403 0.0263639826 0.0
19 0.8709520735 5.1061046472 0.0 0.1 -0.663947224 0.0236269792 -0.0184869103 0.0
20 2.8151271145 2.3104418428 0.0 0.1 2.1758276346 -0.0170636348 0.0246745287 0.0
21 4.4899666424 6.5349265239 0.0 0.1 -1.5681554917 7.9224959813e-05 -0.0299998954 0.0
22 5.5315511642 4.4742884458 0.0 0.1 -2.142030635 -0.0162201241 -0.0252370279 0.0
23 1.3769629853 5.4101614396 0.0 0.1 -1.024608061 0.0155830153 -0.0256353201 0.0
24 0.9520462614 4.7039300913 0.0 0.1 -0.5556767001 0.0254863099 -0.0158255492 0.0
25 5.5139194369 1.6144642321 0.0 0.1 0.7431051609 0.0220911369 0.0202973316 0.0
26 0.9935694121 1.3760027233 0.0 0.1 2.4002512161 -0.0221269014 0.0202583374 0.0
27 5.4253225238 2.8369682219 0.0 0.1 1.2122416001 0.0105276372 0.0280921494 0.0
28 6.5881111505 6.1100903165 0.0 0.1 -2.0495336083 -0.0138197635 -0.0266273194 0.0
29 0.5426625723 2.6677514314 0.0 0.1 1.9711834232 -0.0116932456 0.0276273055 0.0
30 6.598075342 1.3984147641 0.0 0.1 0.9903005696 0.0164531566 0.0250857258 0.0
31 4.7976468879 4.8460027003 0.0 0.1 -1.5780731839 -2.1830378692e-04 -0.0299992057 0.0
32 4.9827319379 2.9633926327 0.0 0.1 1.6798783196 -0.0032659739 0.0298216937 0.0
33 3.8487425063 3.6551975954 0.0 0.1 1.3601558727 0.0062725872 0.0293369162 0.0
34 6.0765945487 1.6164811595 0.0 0.1 1.2535427019 0.0093587526 0.0285028726 0.0
35 1.5851313126 6.4883058163 0.0 0.1 -0.9768842836 0.016788223 -0.0248627345 0.0