ITEM: TIMESTEP
0
ITEM: NUMBER OF ATOMS
260
ITEM: BOX BOUNDS ff ff ff
0.0 0.24
0.0 0.09
0.0 2.0
ITEM: ATOMS id x y fx fy radius
0 0.0967399685 0.0681495735 -0.0084816645 -0.0052972981 0.0015
1 0.0630888376 0.0318547199 -0.003361198 0.0094181924 0.0015
2 0.10508418 0.0168568159 -0.0094163386 -0.0033663879 0.0015
3 0.0090892346 0.0819516097 0.0078384057 0.0062096212 0.0015
4 0.0621956132 0.0779243188 -0.0095871546 -0.0028436715 0.0015
5 0.0463717058 0.0696634352 0.0095304251 -0.0030283653 0.0015
6 0.0866029532 0.0612311227 -0.004896311 0.0087192969 0.0015
7 0.0069620736 0.0494431428 -0.0066636862 -0.0074562247 0.0015
8 0.0933782016 0.012396302 -0.0073375835 0.0067941055 0.0015
9 0.0379285969 0.0170264282 9.2336462766e-06 -0.0099999957 0.0015
10 0.0262341547 0.0621107538 -0.0098525785 0.0017107593 0.0015
11 0.0847548703 0.0387201111 -0.009437081 -0.0033077942 0.0015
12 0.0197543882 0.0193309569 -0.0029604192 0.0095517495 0.0015
13 0.0920121595 0.0527735304 -0.0038382039 -0.0092340777 0.0015
14 0.0697608724 0.0869811171 0.0094276351 0.0033346208 0.0015
15 0.0994851035 0.0732267211 0.0071180399 0.0070237816 0.0015
16 0.0691019587 0.04596632 -2.6557221257e-04 -0.0099964729 0.0015
17 0.0794967267 0.0648607733 -0.0075552612 0.0065511852 0.0015
18 0.0765658962 0.0709823379 -0.007426572 -0.0066967177 0.0015
19 0.0631145566 0.0669735344 0.0025535125 -0.0096684835 0.0015
20 0.0816822855 0.0845015578 -0.0098378015 0.0017937843 0.0015
21 0.0040907567 0.0608116948 0.009247983 0.0038045776 0.0015
22 0.0167164898 0.0425061691 0.0091249465 -0.0040908864 0.0015
23 0.092035125 0.0196411031 -0.0086002858 0.0051024586 0.0015
24 0.0357040442 0.0453258201 0.0053859435 0.0084256521 0.0015
25 0.0586732778 0.016094547 0.007251449 -0.0068859631 0.0015
26 0.0892047123 0.0741502314 -0.009921812 -0.0012480569 0.0015
27 0.0835791367 0.0171201311 -0.0019384235 -0.0098103269 0.0015
28 0.0600874102 0.0703160803 0.0099984856 -1.7402572136e-04 0.0015
29 0.1178067106 0.0228057857 0.0059755847 -0.0080182534 0.0015
30 0.0739784613 0.0649603381 0.0099763189 -6.8779494762e-04 0.0015
31 0.1152291643 0.0085438964 0.0098987084 -0.0014197085 0.0015
32 0.0483682477 0.0759325356 0.0099761517 6.9021590102e-04 0.0015
33 0.0550327462 0.085454878 0.0099772106 -6.7473588676e-04 0.0015
34 0.043081006 0.0434768027 0.0099342213 -0.0011450966 0.0015
35 0.0335727036 0.0872071439 -0.0013084752 0.009914025 0.0015
36 0.0380220218 0.0479915635 0.0085026699 0.0052635164 0.0015
37 0.0566204948 0.0491842717 -0.0015136252 -0.0098847832 0.0015
38 0.1059884003 0.0760253646 0.0062768058 0.0077847099 0.0015
39 0.0037176934 0.0662637094 -9.7594314362e-04 0.0099522628 0.0015
40 0.0202928831 0.0142329867 0.004328137 0.0090148339 0.0015
41 0.0311720596 0.0173005335 0.0039012033 -0.0092076388 0.0015
42 0.0710219433 0.0760735776 -0.0031752053 0.009482514 0.0015
43 0.043485821 0.0096057074 -0.0058617951 0.008101812 0.0015
44 0.0850792745 0.0883952021 -0.0025144884 0.0096787059 0.0015
45 0.1146418091 0.0015 1.1752270508e-04 -0.0099993094 0.0015
46 0.0499806956 0.0314028877 0.0037818293 -0.0092573088 0.0015
47 0.0438691587 0.0778727619 0.0061926605 0.0078518122 0.0015
48 0.0064277332 0.0085344629 -0.0096436694 -0.0026456832 0.0015
49 0.0866017106 0.0249637894 -0.0099278308 -0.0011992399 0.0015
50 0.1027887826 0.0237074811 5.0885452144e-06 -0.0099999987 0.0015
51 0.031470933 0.0572260208 0.0058142869 -0.0081359737 0.0015
52 0.1138233172 0.0489748272 -0.0017631871 -0.0098433313 0.0015
53 0.0426925448 0.0189551586 0.0058769624 -0.0080908166 0.0015
54 0.1180507221 0.001723633 -0.0096272545 -0.002704805 0.0015
55 0.1088057302 0.0696187715 -0.0065719664 -0.0075371916 0.0015
56 0.0136050117 0.0263430152 -0.0099969378 2.4745570566e-04 0.0015
57 0.0387496629 0.0864434387 -0.0097157181 -0.0023674504 0.0015
58 0.1070982162 0.0306706916 -0.0085050797 0.0052596216 0.0015
59 0.0309860669 0.0277386741 -0.0027740182 0.0096075399 0.0015
60 0.0895840414 0.0857050013 -0.0038363806 -0.0092348353 0.0015
61 0.0451304699 0.0171834407 -0.0024023154 0.0097071562 0.0015
62 0.0086064313 0.0199228403 0.0084562639 -0.0053377524 0.0015
63 0.0977405289 0.0232792525 -0.0054674554 -0.0083729882 0.0015
64 0.0544343926 0.0315211548 0.0015951026 -0.0098719627 0.0015
65 0.0653977591 0.0396507097 -0.009568585 0.0029055432 0.0015
66 0.0473956308 0.0060334092 0.0014218028 -0.0098984078 0.0015
67 0.0495588662 0.0568469567 0.0079577374 -0.0060559405 0.0015
68 0.0795735329 0.0587291207 0.0075459648 0.0065618912 0.0015
69 0.0944596646 0.046767889 -0.008960252 -0.004440032 0.0015
70 0.0226758289 0.0767775122 0.003381828 0.0094108044 0.0015
71 0.0185793221 0.0357637627 -0.0062619455 -0.0077966684 0.0015
72 0.1103093781 0.0769193754 0.0046630586 0.0088462356 0.0015
73 0.0584013411 0.0627261866 0.0096947739 0.0024518071 0.0015
74 0.0507099017 0.0825307468 -0.0039306043 -0.0091951264 0.0015
75 0.0099724073 0.0061886268 0.0097539799 0.0022045126 0.0015
76 0.0161585337 0.029813628 -0.0099948239 3.217058718e-04 0.0015
77 0.0441457398 0.0529123742 -0.0044856882 0.0089374829 0.0015
78 0.0665718426 0.0654862551 -0.0077685126 -0.0062968414 0.0015
79 0.015232543 0.036339745 0.0021604737 0.0097638288 0.0015
80 0.0038909654 0.0184688755 0.0094640495 -0.0032298245 0.0015
81 0.0710819761 0.0416398391 0.0037103874 0.0092861739 0.0015
82 0.0694172132 0.0542157222 -0.0083838348 -0.0054508086 0.0015
83 0.0476911042 0.0392274632 -0.009939782 0.0010957802 0.0015
84 0.0261735228 0.0667914605 -0.0022796532 0.0097366925 0.0015
85 0.1141451555 0.0870031054 0.0099831512 -5.8025187584e-04 0.0015
86 0.0829200513 0.0215838488 0.0096049704 0.0027829019 0.0015
87 0.0315178466 0.0749536645 -0.0052382546 0.0085182562 0.0015
88 0.0755504778 0.0581383325 0.009992515 3.8683804001e-04 0.0015
89 0.0934780226 0.0346117069 -0.0035515353 -0.0093480799 0.0015
90 0.029203082 0.0699621624 0.0070886889 0.0070534027 0.0015
91 0.0792587064 0.0305252453 0.0071778365 -0.0069626621 0.0015
92 0.091034009 0.0603030471 0.0094739562 -0.0032006488 0.0015
93 0.0116656386 0.0835323624 -0.0099992379 -1.2345311647e-04 0.0015
94 0.0879831094 0.0450905754 -0.0067704323 -0.0073594325 0.0015
95 0.0787364527 0.0463843672 -0.0090985292 -0.0041493091 0.0015
96 0.0175082852 0.0559054004 0.0052606454 0.0085044465 0.0015
97 0.1126237329 0.0535457813 0.0084646787 0.0053243981 0.0015
98 0.0872177324 0.0511644365 -0.0099148652 0.0013020934 0.0015
99 0.0534193376 0.0583401469 -2.3691557401e-04 0.0099971932 0.0015
100 0.12 0.0 0.0 0.0 5.0e-04
101 0.12 0.09 0.0 0.0 5.0e-04
102 0.12 5.0e-04 0.0 0.0 5.0e-04
103 0.12 0.0895 0.0 0.0 5.0e-04
104 0.12 0.001 0.0 0.0 5.0e-04
105 0.12 0.089 0.0 0.0 5.0e-04
106 0.12 0.0015 0.0 0.0 5.0e-04
107 0.12 0.0885 0.0 0.0 5.0e-04
108 0.12 0.002 0.0 0.0 5.0e-04
109 0.12 0.088 0.0 0.0 5.0e-04
110 0.12 0.0025 0.0 0.0 5.0e-04
111 0.12 0.0875 0.0 0.0 5.0e-04
112 0.12 0.003 0.0 0.0 5.0e-04
113 0.12 0.087 0.0 0.0 5.0e-04
114 0.12 0.0035 0.0 0.0 5.0e-04
115 0.12 0.0865 0.0 0.0 5.0e-04
116 0.12 0.004 0.0 0.0 5.0e-04
117 0.12 0.086 0.0 0.0 5.0e-04
118 0.12 0.0045 0.0 0.0 5.0e-04
119 0.12 0.0855 0.0 0.0 5.0e-04
120 0.12 0.005 0.0 0.0 5.0e-04
121 0.12 0.085 0.0 0.0 5.0e-04
122 0.12 0.0055 0.0 0.0 5.0e-04
123 0.12 0.0845 0.0 0.0 5.0e-04
124 0.12 0.006 0.0 0.0 5.0e-04
125 0.12 0.084 0.0 0.0 5.0e-04
126 0.12 0.0065 0.0 0.0 5.0e-04
127 0.12 0.0835 0.0 0.0 5.0e-04
128 0.12 0.007 0.0 0.0 5.0e-04
129 0.12 0.083 0.0 0.0 5.0e-04
130 0.12 0.0075 0.0 0.0 5.0e-04
131 0.12 0.0825 0.0 0.0 5.0e-04
132 0.12 0.008 0.0 0.0 5.0e-04
133 0.12 0.082 0.0 0.0 5.0e-04
134 0.12 0.0085 0.0 0.0 5.0e-04
135 0.12 0.0815 0.0 0.0 5.0e-04
136 0.12 0.009 0.0 0.0 5.0e-04
137 0.12 0.081 0.0 0.0 5.0e-04
138 0.12 0.0095 0.0 0.0 5.0e-04
139 0.12 0.0805 0.0 0.0 5.0e-04
140 0.12 0.01 0.0 0.0 5.0e-04
141 0.12 0.08 0.0 0.0 5.0e-04
142 0.12 0.0105 0.0 0.0 5.0e-04
143 0.12 0.0795 0.0 0.0 5.0e-04
144 0.12 0.011 0.0 0.0 5.0e-04
145 0.12 0.079 0.0 0.0 5.0e-04
146 0.12 0.0115 0.0 0.0 5.0e-04
147 0.12 0.0785 0.0 0.0 5.0e-04
148 0.12 0.012 0.0 0.0 5.0e-04
149 0.12 0.078 0.0 0.0 5.0e-04
150 0.12 0.0125 0.0 0.0 5.0e-04
151 0.12 0.0775 0.0 0.0 5.0e-04
152 0.12 0.013 0.0 0.0 5.0e-04
153 0.12 0.077 0.0 0.0 5.0e-04
154 0.12 0.0135 0.0 0.0 5.0e-04
155 0.12 0.0765 0.0 0.0 5.0e-04
156 0.12 0.014 0.0 0.0 5.0e-04
157 0.12 0.076 0.0 0.0 5.0e-04
158 0.12 0.0145 0.0 0.0 5.0e-04
159 0.12 0.0755 0.0 0.0 5.0e-04
160 0.12 0.015 0.0 0.0 5.0e-04
161 0.12 0.075 0.0 0.0 5.0e-04
162 0.12 0.0155 0.0 0.0 5.0e-04
163 0.12 0.0745 0.0 0.0 5.0e-04
164 0.12 0.016 0.0 0.0 5.0e-04
165 0.12 0.074 0.0 0.0 5.0e-04
166 0.12 0.0165 0.0 0.0 5.0e-04
167 0.12 0.0735 0.0 0.0 5.0e-04
168 0.12 0.017 0.0 0.0 5.0e-04
169 0.12 0.073 0.0 0.0 5.0e-04
170 0.12 0.0175 0.0 0.0 5.0e-04
171 0.12 0.0725 0.0 0.0 5.0e-04
172 0.12 0.018 0.0 0.0 5.0e-04
173 0.12 0.072 0.0 0.0 5.0e-04
174 0.12 0.0185 0.0 0.0 5.0e-04
175 0.12 0.0715 0.0 0.0 5.0e-04
176 0.12 0.019 0.0 0.0 5.0e-04
177 0.12 0.071 0.0 0.0 5.0e-04
178 0.12 0.0195 0.0 0.0 5.0e-04
179 0.12 0.0705 0.0 0.0 5.0e-04
180 0.12 0.02 0.0 0.0 5.0e-04
181 0.12 0.07 0.0 0.0 5.0e-04
182 0.12 0.0205 0.0 0.0 5.0e-04
183 0.12 0.0695 0.0 0.0 5.0e-04
184 0.12 0.021 0.0 0.0 5.0e-04
185 0.12 0.069 0.0 0.0 5.0e-04
186 0.12 0.0215 0.0 0.0 5.0e-04
187 0.12 0.0685 0.0 0.0 5.0e-04
188 0.12 0.022 0.0 0.0 5.0e-04
189 0.12 0.068 0.0 0.0 5.0e-04
190 0.12 0.0225 0.0 0.0 5.0e-04
191 0.12 0.0675 0.0 0.0 5.0e-04
192 0.12 0.023 0.0 0.0 5.0e-04
193 0.12 0.067 0.0 0.0 5.0e-04
194 0.12 0.0235 0.0 0.0 5.0e-04
195 0.12 0.0665 0.0 0.0 5.0e-04
196 0.12 0.024 0.0 0.0 5.0e-04
197 0.12 0.066 0.0 0.0 5.0e-04
198 0.12 0.0245 0.0 0.0 5.0e-04
199 0.12 0.0655 0.0 0.0 5.0e-04
200 0.12 0.025 0.0 0.0 5.0e-04
201 0.12 0.065 0.0 0.0 5.0e-04
202 0.12 0.0255 0.0 0.0 5.0e-04
203 0.12 0.0645 0.0 0.0 5.0e-04
204 0.12 0.026 0.0 0.0 5.0e-04
205 0.12 0.064 0.0 0.0 5.0e-04
206 0.12 0.0265 0.0 0.0 5.0e-04
207 0.12 0.0635 0.0 0.0 5.0e-04
208 0.12 0.027 0.0 0.0 5.0e-04
209 0.12 0.063 0.0 0.0 5.0e-04
210 0.12 0.0275 0.0 0.0 5.0e-04
211 0.12 0.0625 0.0 0.0 5.0e-04
212 0.12 0.028 0.0 0.0 5.0e-04
213 0.12 0.062 0.0 0.0 5.0e-04
214 0.12 0.0285 0.0 0.0 5.0e-04
215 0.12 0.0615 0.0 0.0 5.0e-04
216 0.12 0.029 0.0 0.0 5.0e-04
217 0.12 0.061 0.0 0.0 5.0e-04
218 0.12 0.0295 0.0 0.0 5.0e-04
219 0.12 0.0605 0.0 0.0 5.0e-04
220 0.12 0.03 0.0 0.0 5.0e-04
221 0.12 0.06 0.0 0.0 5.0e-04
222 0.12 0.0305 0.0 0.0 5.0e-04
223 0.12 0.0595 0.0 0.0 5.0e-04
224 0.12 0.031 0.0 0.0 5.0e-04
225 0.12 0.059 0.0 0.0 5.0e-04
226 0.12 0.0315 0.0 0.0 5.0e-04
227 0.12 0.0585 0.0 0.0 5.0e-04
228 0.12 0.032 0.0 0.0 5.0e-04
229 0.12 0.058 0.0 0.0 5.0e-04
230 0.12 0.0325 0.0 0.0 5.0e-04
231 0.12 0.0575 0.0 0.0 5.0e-04
232 0.12 0.033 0.0 0.0 5.0e-04
233 0.12 0.057 0.0 0.0 5.0e-04
234 0.12 0.0335 0.0 0.0 5.0e-04
235 0.12 0.0565 0.0 0.0 5.0e-04
236 0.12 0.034 0.0 0.0 5.0e-04
237 0.12 0.056 0.0 0.0 5.0e-04
238 0.12 0.0345 0.0 0.0 5.0e-04
239 0.12 0.0555 0.0 0.0 5.0e-04
240 0.12 0.035 0.0 0.0 5.0e-04
241 0.12 0.055 0.0 0.0 5.0e-04
242 0.12 0.0355 0.0 0.0 5.0e-04
243 0.12 0.0545 0.0 0.0 5.0e-04
244 0.12 0.036 0.0 0.0 5.0e-04
245 0.12 0.054 0.0 0.0 5.0e-04
246 0.12 0.0365 0.0 0.0 5.0e-04
247 0.12 0.0535 0.0 0.0 5.0e-04
248 0.12 0.037 0.0 0.0 5.0e-04
249 0.12 0.053 0.0 0.0 5.0e-04
250 0.12 0.0375 0.0 0.0 5.0e-04
251 0.12 0.0525 0.0 0.0 5.0e-04
252 0.12 0.038 0.0 0.0 5.0e-04
253 0.12 0.052 0.0 0.0 5.0e-04
254 0.12 0.0385 0.0 0.0 5.0e-04
255 0.12 0.0515 0.0 0.0 5.0e-04
256 0.12 0.039 0.0 0.0 5.0e-04
257 0.12 0.051 0.0 0.0 5.0e-04
258 0.12 0.0395 0.0 0.0 5.0e-04
259 0.12 0.0505 0.0 0.0 5.0e-04
ITEM: TIMESTEP
1
ITEM: NUMBER OF ATOMS
260
ITEM: BOX BOUNDS ff ff ff
0.0 0.24
0.0 0.09
0.0 2.0
ITEM: ATOMS id x y fx fy radius
0 0.0966481318 0.0680922161 -0.0084816645 -0.0052972981 0.0015
1 0.0630524436 0.0319566971 -0.003361198 0.0094181924 0.0015
2 0.1049822229 0.0168203658 -0.0094163386 -0.0033663879 0.0015
3 0.0091741063 0.0820188454 0.0078384057 0.0062096212 0.0015
4 0.0620918066 0.0778935284 -0.0095871546 -0.0028436715 0.0015
5 0.0464748981 0.0696306451 0.0095304251 -0.0030283653 0.0015
6 0.0865499375 0.0613255324 -0.004896311 0.0087192969 0.0015
7 0.0068899214 0.0493624093 -0.0066636862 -0.0074562247 0.0015
8 0.0932987526 0.0124698663 -0.0073375835 0.0067941055 0.0015
9 0.0379286969 0.0169181516 9.2336462766e-06 -0.0099999957 0.0015
10 0.0261274742 0.0621292773 -0.0098525785 0.0017107593 0.0015
11 0.0846526887 0.0386842954 -0.009437081 -0.0033077942 0.0015
12 0.0197223337 0.0194343801 -0.0029604192 0.0095517495 0.0015
13 0.0919706007 0.0526735468 -0.0038382039 -0.0092340777 0.0015
14 0.0698629518 0.0870172232 0.0094276351 0.0033346208 0.0015
15 0.0995621753 0.0733027723 0.0071180399 0.0070237816 0.0015
16 0.0690990831 0.0458580815 -2.6557221257e-04 -0.0099964729 0.0015
17 0.0794149208 0.0649317074 -0.0075552612 0.0065511852 0.0015
18 0.0764854837 0.070909828 -0.007426572 -0.0066967177 0.0015
19 0.0631422052 0.0668688472 0.0025535125 -0.0096684835 0.0015
20 0.081575765 0.0845209803 -0.0098378015 0.0017937843 0.0015
21 0.0041908909 0.0608528896 0.009247983 0.0038045776 0.0015
22 0.0168152918 0.0424618743 0.0091249465 -0.0040908864 0.0015
23 0.0919420039 0.0196963509 -0.0086002858 0.0051024586 0.0015
24 0.0357623614 0.0454170504 0.0053859435 0.0084256521 0.0015
25 0.0587517942 0.0160199881 0.007251449 -0.0068859631 0.0015
26 0.0890972822 0.0741367178 -0.009921812 -0.0012480569 0.0015
27 0.0835581481 0.0170139081 -0.0019384235 -0.0098103269 0.0015
28 0.0601956705 0.070314196 0.0099984856 -1.7402572136e-04 0.0015
29 0.1178714123 0.0227189667 0.0059755847 -0.0080182534 0.0015
30 0.0740864816 0.0649528909 0.0099763189 -6.8779494762e-04 0.0015
31 0.1153363443 0.0085285242 0.0098987084 -0.0014197085 0.0015
32 0.0484762662 0.075940009 0.0099761517 6.9021590102e-04 0.0015
33 0.0551407762 0.0854475722 0.0099772106 -6.7473588676e-04 0.0015
34 0.0431885705 0.0434644039 0.0099342213 -0.0011450966 0.0015
35 0.0335585358 0.0873144898 -0.0013084752 0.009914025 0.0015
36 0.0381140859 0.0480485551 0.0085026699 0.0052635164 0.0015
37 0.0566041058 0.0490772425 -0.0015136252 -0.0098847832 0.0015
38 0.1060563635 0.0761096549 0.0062768058 0.0077847099 0.0015
39 0.0037071263 0.0663714693 -9.7594314362e-04 0.0099522628 0.0015
40 0.0203397467 0.0143305964 0.004328137 0.0090148339 0.0015
41 0.0312143005 0.0172008362 0.0039012033 -0.0092076388 0.0015
42 0.0709875632 0.0761762512 -0.0031752053 0.009482514 0.0015
43 0.0434223514 0.0096934312 -0.0058617951 0.008101812 0.0015
44 0.0850520484 0.0885 -0.0025144884 0.0096787059 0.0015
45 0.1146430816 0.0016082693 1.1752270508e-04 0.0099993094 0.0015
46 0.0500216441 0.0313026526 0.0037818293 -0.0092573088 0.0015
47 0.0439362108 0.0779577788 0.0061926605 0.0078518122 0.0015
48 0.0063233147 0.0085058163 -0.0096436694 -0.0026456832 0.0015
49 0.0864942153 0.0249508044 -0.0099278308 -0.0011992399 0.0015
50 0.1027888377 0.0235992044 5.0885452144e-06 -0.0099999987 0.0015
51 0.0315338882 0.0571379271 0.0058142869 -0.0081359737 0.0015
52 0.113804226 0.0488682468 -0.0017631871 -0.0098433313 0.0015
53 0.0427561786 0.0188675538 0.0058769624 -0.0080908166 0.0015
54 0.1179464813 0.0016943462 -0.0096272545 -0.002704805 0.0015
55 0.1087345711 0.0695371613 -0.0065719664 -0.0075371916 0.0015
56 0.0134967681 0.0263456945 -0.0099969378 2.4745570566e-04 0.0015
57 0.0386444643 0.0864178047 -0.0097157181 -0.0023674504 0.0015
58 0.107006126 0.0307276411 -0.0085050797 0.0052596216 0.0015
59 0.0309560307 0.0278427015 -0.0027740182 0.0096075399 0.0015
60 0.0895425024 0.0856050095 -0.0038363806 -0.0092348353 0.0015
61 0.0451044584 0.0172885466 -0.0024023154 0.0097071562 0.0015
62 0.008697993 0.0198650449 0.0084562639 -0.0053377524 0.0015
63 0.0976813291 0.0231885925 -0.0054674554 -0.0083729882 0.0015
64 0.0544516639 0.0314142644 0.0015951026 -0.0098719627 0.0015
65 0.0652941536 0.0396821699 -0.009568585 0.0029055432 0.0015
66 0.0474110256 0.0059262325 0.0014218028 -0.0098984078 0.0015
67 0.04964503 0.0567813849 0.0079577374 -0.0060559405 0.0015
68 0.0796552382 0.0588001707 0.0075459648 0.0065618912 0.0015
69 0.094362646 0.0467198138 -0.008960252 -0.004440032 0.0015
70 0.0227124462 0.0768794093 0.003381828 0.0094108044 0.0015
71 0.0185115198 0.0356793429 -0.0062619455 -0.0077966684 0.0015
72 0.1103598682 0.0770151595 0.0046630586 0.0088462356 0.0015
73 0.0585063129 0.0627527339 0.0096947739 0.0024518071 0.0015
74 0.0506673424 0.0824311849 -0.0039306043 -0.0091951264 0.0015
75 0.0100780203 0.0062124966 0.0097539799 0.0022045126 0.0015
76 0.016050313 0.0298171113 -0.0099948239 3.217058718e-04 0.0015
77 0.0440971702 0.0530091463 -0.0044856882 0.0089374829 0.0015
78 0.0664877277 0.065418075 -0.0077685126 -0.0062968414 0.0015
79 0.0152559359 0.0364454646 0.0021604737 0.0097638288 0.0015
80 0.003993439 0.0184339041 0.0094640495 -0.0032298245 0.0015
81 0.071122151 0.0417403867 0.0037103874 0.0092861739 0.0015
82 0.0693264358 0.0541567026 -0.0083838348 -0.0054508086 0.0015
83 0.0475834795 0.039239328 -0.009939782 0.0010957802 0.0015
84 0.0261488394 0.0668968862 -0.0022796532 0.0097366925 0.0015
85 0.1142532498 0.0869968226 0.0099831512 -5.8025187584e-04 0.0015
86 0.0830240508 0.0216139811 0.0096049704 0.0027829019 0.0015
87 0.0314611285 0.0750458974 -0.0052382546 0.0085182562 0.0015
88 0.0756586734 0.0581425211 0.009992515 3.8683804001e-04 0.0015
89 0.0934395677 0.0345104889 -0.0035515353 -0.0093480799 0.0015
90 0.0292798361 0.0700385343 0.0070886889 0.0070534027 0.0015
91 0.0793364257 0.0304498559 0.0071778365 -0.0069626621 0.0015
92 0.0911365899 0.0602683915 0.0094739562 -0.0032006488 0.0015
93 0.0115573701 0.0835310257 -0.0099992379 -1.2345311647e-04 0.0015
94 0.0879098014 0.0450108898 -0.0067704323 -0.0073594325 0.0015
95 0.0786379368 0.0463394399 -0.0090985292 -0.0041493091 0.0015
96 0.0175652458 0.0559974838 0.0052606454 0.0085044465 0.0015
97 0.1127153857 0.0536034322 0.0084646787 0.0053243981 0.0015
98 0.0871103774 0.0511785352 -0.0099148652 0.0013020934 0.0015
99 0.0534167723 0.0584483933 -2.3691557401e-04 0.0099971932 0.0015
100 0.12 0.0 0.0 0.0 5.0e-04
101 0.12 0.09 0.0 0.0 5.0e-04
102 0.12 5.0e-04 0.0 0.0 5.0e-04
103 0.12 0.0895 0.0 0.0 5.0e-04
104 0.12 0.001 0.0 0.0 5.0e-04
105 0.12 0.089 0.0 0.0 5.0e-04
106 0.12 0.0015 0.0 0.0 5.0e-04
107 0.12 0.0885 0.0 0.0 5.0e-04
108 0.12 0.002 0.0 0.0 5.0e-04
109 0.12 0.088 0.0 0.0 5.0e-04
110 0.12 0.0025 0.0 0.0 5.0e-04
111 0.12 0.0875 0.0 0.0 5.0e-04
112 0.12 0.003 0.0 0.0 5.0e-04
113 0.12 0.087 0.0 0.0 5.0e-04
114 0.12 0.0035 0.0 0.0 5.0e-04
115 0.12 0.0865 0.0 0.0 5.0e-04
116 0.12 0.004 0.0 0.0 5.0e-04
117 0.12 0.086 0.0 0.0 5.0e-04
118 0.12 0.0045 0.0 0.0 5.0e-04
119 0.12 0.0855 0.0 0.0 5.0e-04
120 0.12 0.005 0.0 0.0 5.0e-04
121 0.12 0.085 0.0 0.0 5.0e-04
122 0.12 0.0055 0.0 0.0 5.0e-04
123 0.12 0.0845 0.0 0.0 5.0e-04
124 0.12 0.006 0.0 0.0 5.0e-04
125 0.12 0.084 0.0 0.0 5.0e-04
126 0.12 0.0065 0.0 0.0 5.0e-04
127 0.12 0.0835 0.0 0.0 5.0e-04
128 0.12 0.007 0.0 0.0 5.0e-04
129 0.12 0.083 0.0 0.0 5.0e-04
130 0.12 0.0075 0.0 0.0 5.0e-04
131 0.12 0.0825 0.0 0.0 5.0e-04
132 0.12 0.008 0.0 0.0 5.0e-04
133 0.12 0.082 0.0 0.0 5.0e-04
134 0.12 0.0085 0.0 0.0 5.0e-04
135 0.12 0.0815 0.0 0.0 5.0e-04
136 0.12 0.009 0.0 0.0 5.0e-04
137 0.12 0.081 0.0 0.0 5.0e-04
138 0.12 0.0095 0.0 0.0 5.0e-04
139 0.12 0.0805 0.0 0.0 5.0e-04
140 0.12 0.01 0.0 0.0 5.0e-04
141 0.12 0.08 0.0 0.0 5.0e-04
142 0.12 0.0105 0.0 0.0 5.0e-04
143 0.12 0.0795 0.0 0.0 5.0e-04
144 0.12 0.011 0.0 0.0 5.0e-04
145 0.12 0.079 0.0 0.0 5.0e-04
146 0.12 0.0115 0.0 0.0 5.0e-04
147 0.12 0.0785 0.0 0.0 5.0e-04
148 0.12 0.012 0.0 0.0 5.0e-04
149 0.12 0.078 0.0 0.0 5.0e-04
150 0.12 0.0125 0.0 0.0 5.0e-04
151 0.12 0.0775 0.0 0.0 5.0e-04
152 0.12 0.013 0.0 0.0 5.0e-04
153 0.12 0.077 0.0 0.0 5.0e-04
154 0.12 0.0135 0.0 0.0 5.0e-04
155 0.12 0.0765 0.0 0.0 5.0e-04
156 0.12 0.014 0.0 0.0 5.0e-04
157 0.12 0.076 0.0 0.0 5.0e-04
158 0.12 0.0145 0.0 0.0 5.0e-04
159 0.12 0.0755 0.0 0.0 5.0e-04
160 0.12 0.015 0.0 0.0 5.0e-04
161 0.12 0.075 0.0 0.0 5.0e-04
162 0.12 0.0155 0.0 0.0 5.0e-04
163 0.12 0.0745 0.0 0.0 5.0e-04
164 0.12 0.016 0.0 0.0 5.0e-04
165 0.12 0.074 0.0 0.0 5.0e-04
166 0.12 0.0165 0.0 0.0 5.0e-04
167 0.12 0.0735 0.0 0.0 5.0e-04
168 0.12 0.017 0.0 0.0 5.0e-04
169 0.12 0.073 0.0 0.0 5.0e-04
170 0.12 0.0175 0.0 0.0 5.0e-04
171 0.12 0.0725 0.0 0.0 5.0e-04
172 0.12 0.018 0.0 0.0 5.0e-04
173 0.12 0.072 0.0 0.0 5.0e-04
174 0.12 0.0185 0.0 0.0 5.0e-04
175 0.12 0.0715 0.0 0.0 5.0e-04
176 0.12 0.019 0.0 0.0 5.0e-04
177 0.12 0.071 0.0 0.0 5.0e-04
178 0.12 0.0195 0.0 0.0 5.0e-04
179 0.12 0.0705 0.0 0.0 5.0e-04
180 0.12 0.02 0.0 0.0 5.0e-04
181 0.12 0.07 0.0 0.0 5.0e-04
182 0.12 0.0205 0.0 0.0 5.0e-04
183 0.12 0.0695 0.0 0.0 5.0e-04
184 0.12 0.021 0.0 0.0 5.0e-04
185 0.12 0.069 0.0 0.0 5.0e-04
186 0.12 0.0215 0.0 0.0 5.0e-04
187 0.12 0.0685 0.0 0.0 5.0e-04
188 0.12 0.022 0.0 0.0 5.0e-04
189 0.12 0.068 0.0 0.0 5.0e-04
190 0.12 0.0225 0.0 0.0 5.0e-04
191 0.12 0.0675 0.0 0.0 5.0e-04
192 0.12 0.023 0.0 0.0 5.0e-04
193 0.12 0.067 0.0 0.0 5.0e-04
194 0.12 0.0235 0.0 0.0 5.0e-04
195 0.12 0.0665 0.0 0.0 5.0e-04
196 0.12 0.024 0.0 0.0 5.0e-04
197 0.12 0.066 0.0 0.0 5.0e-04
198 0.12 0.0245 0.0 0.0 5.0e-04
199 0.12 0.0655 0.0 0.0 5.0e-04
200 0.12 0.025 0.0 0.0 5.0e-04
201 0.12 0.065 0.0 0.0 5.0e-04
202 0.12 0.0255 0.0 0.0 5.0e-04
203 0.12 0.0645 0.0 0.0 5.0e-04
204 0.12 0.026 0.0 0.0 5.0e-04
205 0.12 0.064 0.0 0.0 5.0e-04
206 0.12 0.0265 0.0 0.0 5.0e-04
207 0.12 0.0635 0.0 0.0 5.0e-04
208 0.12 0.027 0.0 0.0 5.0e-04
209 0.12 0.063 0.0 0.0 5.0e-04
210 0.12 0.0275 0.0 0.0 5.0e-04
211 0.12 0.0625 0.0 0.0 5.0e-04
212 0.12 0.028 0.0 0.0 5.0e-04
213 0.12 0.062 0.0 0.0 5.0e-04
214 0.12 0.0285 0.0 0.0 5.0e-04
215 0.12 0.0615 0.0 0.0 5.0e-04
216 0.12 0.029 0.0 0.0 5.0e-04
217 0.12 0.061 0.0 0.0 5.0e-04
218 0.12 0.0295 0.0 0.0 5.0e-04
219 0.12 0.0605 0.0 0.0 5.0e-04
220 0.12 0.03 0.0 0.0 5.0e-04
221 0.12 0.06 0.0 0.0 5.0e-04
222 0.12 0.0305 0.0 0.0 5.0e-04
223 0.12 0.0595 0.0 0.0 5.0e-04
224 0.12 0.031 0.0 0.0 5.0e-04
225 0.12 0.059 0.0 0.0 5.0e-04
226 0.12 0.0315 0.0 0.0 5.0e-04
227 0.12 0.0585 0.0 0.0 5.0e-04
228 0.12 0.032 0.0 0.0 5.0e-04
229 0.12 0.058 0.0 0.0 5.0e-04
230 0.12 0.0325 0.0 0.0 5.0e-04
231 0.12 0.0575 0.0 0.0 5.0e-04
232 0.12 0.033 0.0 0.0 5.0e-04
233 0.12 0.057 0.0 0.0 5.0e-04
234 0.12 0.0335 0.0 0.0 5.0e-04
235 0.12 0.0565 0.0 0.0 5.0e-04
236 0.12 0.034 0.0 0.0 5.0e-04
237 0.12 0.056 0.0 0.0 5.0e-04
238 0.12 0.0345 0.0 0.0 5.0e-04
239 0.12 0.0555 0.0 0.0 5.0e-04
240 0.12 0.035 0.0 0.0 5.0e-04
241 0.12 0.055 0.0 0.0 5.0e-04
242 0.12 0.0355 0.0 0.0 5.0e-04
243 0.12 0.0545 0.0 0.0 5.0e-04
244 0.12 0.036 0.0 0.0 5.0e-04
245 0.12 0.054 0.0 0.0 5.0e-04
246 0.12 0.0365 0.0 0.0 5.0e-04
247 0.12 0.0535 0.0 0.0 5.0e-04
248 0.12 0.037 0.0 0.0 5.0e-04
249 0.12 0.053 0.0 0.0 5.0e-04
250 0.12 0.0375 0.0 0.0 5.0e-04
251 0.12 0.0525 0.0 0.0 5.0e-04
252 0.12 0.038 0.0 0.0 5.0e-04
253 0.12 0.052 0.0 0.0 5.0e-04
254 0.12 0.0385 0.0 0.0 5.0e-04
255 0.12 0.0515 0.0 0.0 5.0e-04
256 0.12 0.039 0.0 0.0 5.0e-04
257 0.12 0.051 0.0 0.0 5.0e-04
258 0.12 0.0395 0.0 0.0 5.0e-04
259 0.12 0.0505 0.0 0.0 5.0e-04
ITEM: TIMESTEP
2
ITEM: NUMBER OF ATOMS
260
ITEM: BOX BOUNDS ff ff ff
0.0 0.24
0.0 0.09
0.0 2.0
ITEM: ATOMS id x y fx fy radius
0 0.0963678511 0.0679171643 -0.0084816645 -0.0052972981 0.0015
1 0.0629413713 0.0322679257 -0.003361198 0.0094181924 0.0015
2 0.1046710555 0.0167091219 -0.0094163386 -0.0033663879 0.0015
3 0.0094331302 0.0822240453 0.0078384057 0.0062096212 0.0015
4 0.0617749945 0.0777995579 -0.0095871546 -0.0028436715 0.0015
5 0.0467898356 0.0695305713 0.0095304251 -0.0030283653 0.0015
6 0.0863881366 0.0616136658 -0.004896311 0.0087192969 0.0015
7 0.0066697167 0.0491160148 -0.0066636862 -0.0074562247 0.0015
8 0.0930562787 0.0126943808 -0.0073375835 0.0067941055 0.0015
9 0.037929002 0.0165876969 9.2336462766e-06 -0.0099999957 0.0015
10 0.0258018911 0.0621858102 -0.0098525785 0.0017107593 0.0015
11 0.0843408358 0.0385749878 -0.009437081 -0.0033077942 0.0015
12 0.0196245053 0.0197500222 -0.0029604192 0.0095517495 0.0015
13 0.0918437654 0.0523684023 -0.0038382039 -0.0092340777 0.0015
14 0.0701744925 0.0871274174 0.0094276351 0.0033346208 0.0015
15 0.0997973944 0.0735348765 0.0071180399 0.0070237816 0.0015
16 0.0690903072 0.0455277433 -2.6557221257e-04 -0.0099964729 0.0015
17 0.0791652536 0.0651481944 -0.0075552612 0.0065511852 0.0015
18 0.0762400691 0.0706885318 -0.007426572 -0.0066967177 0.0015
19 0.0632265872 0.0665493476 0.0025535125 -0.0096684835 0.0015
20 0.0812506702 0.0845802567 -0.0098378015 0.0017937843 0.0015
21 0.0044964949 0.0609786137 0.009247983 0.0038045776 0.0015
22 0.01711683 0.042326689 0.0091249465 -0.0040908864 0.0015
23 0.0916578034 0.0198649641 -0.0086002858 0.0051024586 0.0015
24 0.0359403425 0.04569548 0.0053859435 0.0084256521 0.0015
25 0.0589914218 0.0157924382 0.007251449 -0.0068859631 0.0015
26 0.0887694112 0.0740954752 -0.009921812 -0.0012480569 0.0015
27 0.083494092 0.0166897212 -0.0019384235 -0.0098103269 0.0015
28 0.0605260752 0.0703084453 0.0099984856 -1.7402572136e-04 0.0015
29 0.1180688783 0.0224539997 0.0059755847 -0.0080182534 0.0015
30 0.0744161539 0.0649301624 0.0099763189 -6.8779494762e-04 0.0015
31 0.1156634518 0.0084816093 0.0098987084 -0.0014197085 0.0015
32 0.0488059329 0.0759628175 0.0099761517 6.9021590102e-04 0.0015
33 0.0554704779 0.0854252752 0.0099772106 -6.7473588676e-04 0.0015
34 0.0435168516 0.0434265637 0.0099342213 -0.0011450966 0.0015
35 0.0335152966 0.0876421034 -0.0013084752 0.009914025 0.0015
36 0.0383950607 0.0482224905 0.0085026699 0.0052635164 0.0015
37 0.0565540873 0.0487505951 -0.0015136252 -0.0098847832 0.0015
38 0.1062637835 0.0763669043 0.0062768058 0.0077847099 0.0015
39 0.0036748757 0.0667003465 -9.7594314362e-04 0.0099522628 0.0015
40 0.0204827721 0.0146284959 0.004328137 0.0090148339 0.0015
41 0.0313432177 0.0168965653 0.0039012033 -0.0092076388 0.0015
42 0.070882637 0.0764896054 -0.0031752053 0.009482514 0.0015
43 0.0432286456 0.0099611594 -0.0058617951 0.008101812 0.0015
44 0.084968956 0.0881801625 -0.0025144884 -0.0096787059 0.0015
45 0.1146469652 0.0019387012 1.1752270508e-04 0.0099993094 0.0015
46 0.0501466164 0.0309967404 0.0037818293 -0.0092573088 0.0015
47 0.0441408502 0.0782172456 0.0061926605 0.0078518122 0.0015
48 0.006004635 0.0084183884 -0.0096436694 -0.0026456832 0.0015
49 0.0861661454 0.024911175 -0.0099278308 -0.0011992399 0.0015
50 0.1027890058 0.0232687497 5.0885452144e-06 -0.0099999987 0.0015
51 0.0317260241 0.05686907 0.0058142869 -0.0081359737 0.0015
52 0.1137459606 0.0485429693 -0.0017631871 -0.0098433313 0.0015
53 0.0429503857 0.0186001889 0.0058769624 -0.0080908166 0.0015
54 0.1176283441 0.0016049647 -0.0096272545 -0.002704805 0.0015
55 0.1085173973 0.0692880912 -0.0065719664 -0.0075371916 0.0015
56 0.0131664145 0.0263538718 -0.0099969378 2.4745570566e-04 0.0015
57 0.0383234037 0.0863395711 -0.0097157181 -0.0023674504 0.0015
58 0.1067250716 0.0309014478 -0.0085050797 0.0052596216 0.0015
59 0.030864362 0.0281601872 -0.0027740182 0.0096075399 0.0015
60 0.0894157273 0.08529984 -0.0038363806 -0.0092348353 0.0015
61 0.0450250728 0.0176093242 -0.0024023154 0.0097071562 0.0015
62 0.0089774343 0.0196886563 0.0084562639 -0.0053377524 0.0015
63 0.0975006544 0.0229119031 -0.0054674554 -0.0083729882 0.0015
64 0.0545043748 0.0310880407 0.0015951026 -0.0098719627 0.0015
65 0.0649779551 0.039778185 -0.009568585 0.0029055432 0.0015
66 0.0474580098 0.0055991349 0.0014218028 -0.0098984078 0.0015
67 0.0499079972 0.0565812635 0.0079577374 -0.0060559405 0.0015
68 0.0799045982 0.0590170115 0.0075459648 0.0065618912 0.0015
69 0.0940665502 0.0465730908 -0.008960252 -0.004440032 0.0015
70 0.0228242003 0.0771903939 0.003381828 0.0094108044 0.0015
71 0.0183045909 0.0354216983 -0.0062619455 -0.0077966684 0.0015
72 0.1105139612 0.0773074876 0.0046630586 0.0088462356 0.0015
73 0.0588266814 0.0628337551 0.0096947739 0.0024518071 0.0015
74 0.0505374537 0.0821273276 -0.0039306043 -0.0091951264 0.0015
75 0.0104003452 0.0062853457 0.0097539799 0.0022045126 0.0015
76 0.0157200293 0.0298277422 -0.0099948239 3.217058718e-04 0.0015
77 0.0439489385 0.0533044897 -0.0044856882 0.0089374829 0.0015
78 0.0662310135 0.0652099929 -0.0077685126 -0.0062968414 0.0015
79 0.0153273298 0.0367681149 0.0021604737 0.0097638288 0.0015
80 0.004306183 0.018327173 0.0094640495 -0.0032298245 0.0015
81 0.0712447625 0.0420472528 0.0037103874 0.0092861739 0.0015
82 0.0690493879 0.0539765781 -0.0083838348 -0.0054508086 0.0015
83 0.0472550147 0.0392755386 -0.009939782 0.0010957802 0.0015
84 0.0260735072 0.0672186399 -0.0022796532 0.0097366925 0.0015
85 0.1145831477 0.0869776479 0.0099831512 -5.8025187584e-04 0.0015
86 0.0833414516 0.0217059434 0.0096049704 0.0027829019 0.0015
87 0.0312880279 0.0753273873 -0.0052382546 0.0085182562 0.0015
88 0.0759888809 0.0581553043 0.009992515 3.8683804001e-04 0.0015
89 0.0933222055 0.0342015772 -0.0035515353 -0.0093480799 0.0015
90 0.0295140852 0.0702716174 0.0070886889 0.0070534027 0.0015
91 0.0795736207 0.0302197714 0.0071778365 -0.0069626621 0.0015
92 0.0914496613 0.0601626246 0.0094739562 -0.0032006488 0.0015
93 0.0112269405 0.0835269461 -0.0099992379 -1.2345311647e-04 0.0015
94 0.0876860692 0.0447676939 -0.0067704323 -0.0073594325 0.0015
95 0.0783372716 0.046202324 -0.0090985292 -0.0041493091 0.0015
96 0.0177390863 0.0562785173 0.0052606454 0.0085044465 0.0015
97 0.1129951051 0.0537793795 0.0084646787 0.0053243981 0.0015
98 0.086782736 0.0512215635 -0.0099148652 0.0013020934 0.0015
99 0.0534089433 0.0587787553 -2.3691557401e-04 0.0099971932 0.0015
100 0.12 0.0 0.0 0.0 5.0e-04
101 0.12 0.09 0.0 0.0 5.0e-04
102 0.12 5.0e-04 0.0 0.0 5.0e-04
103 0.12 0.0895 0.0 0.0 5.0e-04
104 0.12 0.001 0.0 0.0 5.0e-04
105 0.12 0.089 0.0 0.0 5.0e-04
106 0.12 0.0015 0.0 0.0 5.0e-04
107 0.12 0.0885 0.0 0.0 5.0e-04
108 0.12 0.002 0.0 0.0 5.0e-04
109 0.12 0.088 0.0 0.0 5.0e-04
110 0.12 0.0025 0.0 0.0 5.0e-04
111 0.12 0.0875 0.0 0.0 5.0e-04
112 0.12 0.003 0.0 0.0 5.0e-04
113 0.12 0.087 0.0 0.0 5.0e-04
114 0.12 0.0035 0.0 0.0 5.0e-04
115 0.12 0.0865 0.0 0.0 5.0e-04
116 0.12 0.004 0.0 0.0 5.0e-04
117 0.12 0.086 0.0 0.0 5.0e-04
118 0.12 0.0045 0.0 0.0 5.0e-04