ITEM: TIMESTEP
0
ITEM: NUMBER OF ATOMS
260
ITEM: BOX BOUNDS ff ff ff
0.0 0.24
0.0 0.09
0.0 2.0
ITEM: ATOMS id x y fx fy radius
0 0.0089193196 0.0227728325 0.0076719522 0.0064141367 0.0015
1 0.0817703821 0.0647134339 -0.0094871375 -0.0031613639 0.0015
2 0.073522921 0.0574660089 -0.0098885025 0.0014891334 0.0015
3 0.0518371844 0.0188170131 0.0063419327 -0.0077317456 0.0015
4 0.0452457269 0.0370465359 0.0098524902 0.0017112678 0.0015
5 0.0722461286 0.0870951155 -0.003626413 -0.009319288 0.0015
6 0.0367528131 0.0712158119 0.0062589565 0.0077990682 0.0015
7 0.0626186702 0.0465197038 -0.0061156075 -0.0079119748 0.0015
8 0.0721649758 0.053125449 -0.0098566676 0.0016870397 0.0015
9 0.0930559326 0.08137315 -0.0099439879 0.0010569316 0.0015
10 0.0087546487 0.0745806796 -0.0098991142 -0.001416876 0.0015
11 0.0555065957 0.0620926444 0.0099271554 -0.0012048176 0.0015
12 0.1109774282 0.0348592628 -0.0078061057 0.0062501771 0.0015
13 0.0482526873 0.0877575253 0.003623056 0.0093205936 0.0015
14 0.0411139939 0.0408105833 2.4525602886e-04 0.009996992 0.0015
15 0.0057201363 0.0175504714 0.0070166524 0.0071250676 0.0015
16 0.0180385937 0.0372093364 -0.0057404201 0.0081882585 0.0015
17 0.0266024421 0.0401070805 0.0051098858 -0.008595875 0.0015
18 0.1022081203 0.0030159649 0.0099398185 -0.0010954486 0.0015
19 0.0987556203 0.0867153781 0.0097714101 0.0021259222 0.0015
20 0.0278112928 0.0078130328 0.0020225431 -0.0097933303 0.0015
21 0.0444461619 0.0275766129 -0.0013871478 0.0099033237 0.0015
22 0.0777929627 0.0479483503 0.0036882608 0.0092949842 0.0015
23 0.0580664277 0.0160447307 3.0473976657e-04 -0.0099953556 0.0015
24 0.0553164626 0.0518930353 0.0021981263 0.0097554211 0.0015
25 0.0170878434 0.0859333313 -0.0090971206 -0.0041523965 0.0015
26 0.0698994403 0.0430359106 -0.0098073398 0.0019534807 0.0015
27 0.012338092 0.0848504189 0.0063607978 0.007716233 0.0015
28 0.1156776389 0.0112947115 -0.0097723861 0.002121431 0.0015
29 0.0621617402 0.0538503612 -0.0018265868 0.0098317639 0.0015
30 0.1025453718 0.0766499798 -0.0070898782 -0.0070522073 0.0015
31 0.0357826741 0.0569623834 -0.0024018253 0.0097072774 0.0015
32 0.0364099752 0.0313357163 -0.0098591633 -0.0016723931 0.0015
33 0.018557099 0.0077031854 9.0171775636e-04 0.0099592623 0.0015
34 0.0394964796 0.0464655 0.0062748583 0.0077862798 0.0015
35 0.0605935192 0.0279965516 0.0093436067 -0.0035632868 0.0015
36 0.0099494477 0.0420429333 -0.0068196293 -0.0073138674 0.0015
37 0.0081137733 0.0582599816 0.0017936038 0.0098378344 0.0015
38 0.0555154522 0.0763344469 -0.0083652938 0.0054792207 0.0015
39 0.0982886762 0.0487163354 0.0082648723 0.0056295546 0.0015
40 0.0369258955 0.0425919768 -0.0062922192 -0.0077722569 0.0015
41 0.0922687195 0.0085077875 -0.0099991135 1.3315181071e-04 0.0015
42 0.0544495461 0.0794699645 -0.003983387 -0.009172384 0.0015
43 0.0840163731 0.0750083852 -0.0081776015 0.0057555915 0.0015
44 0.0302622996 0.0382146837 0.0086283836 -0.0050547993 0.0015
45 0.0152084007 0.0701245409 -0.0098032444 0.00197393 0.0015
46 0.0486813031 0.0630850518 -0.0097168115 -0.0023629589 0.0015
47 0.0641045361 0.0298328513 -0.0087147287 -0.0049044371 0.0015
48 0.0432016095 0.0688768554 -0.007241393 0.0068965373 0.0015
49 0.0038268779 0.0580650774 0.0081550218 -0.00578754 0.0015
50 0.098410848 0.0568450299 0.0066231325 0.0074922704 0.0015
51 0.0274068522 0.0286273159 0.0082508793 -0.0056500435 0.0015
52 0.0607229667 0.0381307209 -0.0035964852 -0.0093308785 0.0015
53 0.0190812447 0.0537228964 0.0095675112 0.0029090771 0.0015
54 0.0999668104 0.0533785141 -0.0077531838 -0.0063157058 0.0015
55 0.0879013172 0.079435206 0.0097521512 0.0022125883 0.0015
56 0.0175688805 0.0327960266 0.0099905455 4.3474257056e-04 0.0015
57 0.0316771593 0.0714362754 -0.0057238289 -0.0081998648 0.0015
58 0.0261236193 0.0045906229 -0.0096764342 0.0025232164 0.0015
59 0.063329664 0.0776742833 0.009218319 -0.0038758991 0.0015
60 0.0453819587 0.0110392016 0.0098916311 0.001468208 0.0015
61 0.0287521872 0.0510117608 -0.0073717071 0.0067570655 0.0015
62 0.1023086891 0.0273801351 0.0021820539 -0.0097590287 0.0015
63 0.0033884595 0.0424944724 -0.0024152852 0.0097039372 0.0015
64 0.0277920521 0.0785341065 -0.0010968927 -0.0099396593 0.0015
65 0.0828000914 0.0022928604 -0.0059874002 0.0080094344 0.0015
66 0.0316760697 0.0084116963 0.0099994143 -1.0822870985e-04 0.0015
67 0.0413884941 0.0654311967 0.0080798403 -0.0058920438 0.0015
68 0.0198529839 0.0612555109 -0.0099576673 -9.191633236e-04 0.0015
69 0.0659588677 0.0726552621 -0.0086971521 -0.004935539 0.0015
70 0.0130071407 0.043587079 -0.009380274 -0.0034656111 0.0015
71 0.0807806255 0.0780763016 0.0065521408 -0.0075544325 0.0015
72 0.1088026579 0.0164398955 0.0099923344 3.9147560301e-04 0.0015
73 0.1064973196 0.0690662727 0.0086782216 -0.0049687493 0.0015
74 0.0378102142 0.0844283617 0.0056917985 0.0082221305 0.0015
75 0.0979419594 0.0222079831 0.0042291361 -0.0090617001 0.0015
76 0.0205019425 0.0256033281 -0.0097796537 0.0020876719 0.0015
77 0.0122206931 0.0703958399 -0.0073638688 -0.0067656069 0.0015
78 0.0112919804 0.0525941731 0.0013590183 -0.0099072231 0.0015
79 0.0581046258 0.0251847027 -0.0099745028 -7.1364848625e-04 0.0015
80 0.1066182605 0.0654809972 0.0023814308 0.0097123008 0.0015
81 0.077081281 0.0367122282 0.0050634624 0.0086233027 0.0015
82 0.0365041934 0.0640073431 0.009639133 -0.0026621637 0.0015
83 0.0392523189 0.0585201258 0.0099995601 9.3794706274e-05 0.0015
84 0.1069416864 0.0039528995 0.0095020861 0.0031161449 0.0015
85 0.0474233351 0.0834775599 0.0099774425 -6.7129794327e-04 0.0015
86 0.0617415243 0.0047245479 -0.0025840438 -0.0096603684 0.0015
87 0.0239483643 0.0748006959 -0.0033004126 0.0094396651 0.0015
88 0.0102842085 0.0641049465 -0.0094173814 -0.0033634697 0.0015
89 0.0054350699 0.0098086374 0.001700054 -0.0098544313 0.0015
90 0.0032175968 0.0687774894 -0.0077882091 0.0062724636 0.0015
91 0.0090663537 0.0491406112 0.0085090302 -0.005253228 0.0015
92 0.0988739256 0.0781973378 -0.009065917 0.0042200888 0.0015
93 0.0026424816 0.0226236016 -0.0014665499 -0.009891877 0.0015
94 0.026198502 0.0856835044 0.0042718556 0.0090416398 0.0015
95 0.086302054 0.0631703853 -0.0038592698 -0.0092252933 0.0015
96 0.0529429059 0.0349166283 0.0020297085 0.0097918478 0.0015
97 0.0451895366 0.0332365715 -0.0075496092 -0.0065576978 0.0015
98 0.0821910312 0.034703567 -0.0080804608 -0.0058911928 0.0015
99 0.0839870251 0.0680557408 0.0043045631 -0.0090261141 0.0015
100 0.12 0.0 0.0 0.0 5.0e-04
101 0.12 0.09 0.0 0.0 5.0e-04
102 0.12 5.0e-04 0.0 0.0 5.0e-04
103 0.12 0.0895 0.0 0.0 5.0e-04
104 0.12 0.001 0.0 0.0 5.0e-04
105 0.12 0.089 0.0 0.0 5.0e-04
106 0.12 0.0015 0.0 0.0 5.0e-04
107 0.12 0.0885 0.0 0.0 5.0e-04
108 0.12 0.002 0.0 0.0 5.0e-04
109 0.12 0.088 0.0 0.0 5.0e-04
110 0.12 0.0025 0.0 0.0 5.0e-04
111 0.12 0.0875 0.0 0.0 5.0e-04
112 0.12 0.003 0.0 0.0 5.0e-04
113 0.12 0.087 0.0 0.0 5.0e-04
114 0.12 0.0035 0.0 0.0 5.0e-04
115 0.12 0.0865 0.0 0.0 5.0e-04
116 0.12 0.004 0.0 0.0 5.0e-04
117 0.12 0.086 0.0 0.0 5.0e-04
118 0.12 0.0045 0.0 0.0 5.0e-04
119 0.12 0.0855 0.0 0.0 5.0e-04
120 0.12 0.005 0.0 0.0 5.0e-04
121 0.12 0.085 0.0 0.0 5.0e-04
122 0.12 0.0055 0.0 0.0 5.0e-04
123 0.12 0.0845 0.0 0.0 5.0e-04
124 0.12 0.006 0.0 0.0 5.0e-04
125 0.12 0.084 0.0 0.0 5.0e-04
126 0.12 0.0065 0.0 0.0 5.0e-04
127 0.12 0.0835 0.0 0.0 5.0e-04
128 0.12 0.007 0.0 0.0 5.0e-04
129 0.12 0.083 0.0 0.0 5.0e-04
130 0.12 0.0075 0.0 0.0 5.0e-04
131 0.12 0.0825 0.0 0.0 5.0e-04
132 0.12 0.008 0.0 0.0 5.0e-04
133 0.12 0.082 0.0 0.0 5.0e-04
134 0.12 0.0085 0.0 0.0 5.0e-04
135 0.12 0.0815 0.0 0.0 5.0e-04
136 0.12 0.009 0.0 0.0 5.0e-04
137 0.12 0.081 0.0 0.0 5.0e-04
138 0.12 0.0095 0.0 0.0 5.0e-04
139 0.12 0.0805 0.0 0.0 5.0e-04
140 0.12 0.01 0.0 0.0 5.0e-04
141 0.12 0.08 0.0 0.0 5.0e-04
142 0.12 0.0105 0.0 0.0 5.0e-04
143 0.12 0.0795 0.0 0.0 5.0e-04
144 0.12 0.011 0.0 0.0 5.0e-04
145 0.12 0.079 0.0 0.0 5.0e-04
146 0.12 0.0115 0.0 0.0 5.0e-04
147 0.12 0.0785 0.0 0.0 5.0e-04
148 0.12 0.012 0.0 0.0 5.0e-04
149 0.12 0.078 0.0 0.0 5.0e-04
150 0.12 0.0125 0.0 0.0 5.0e-04
151 0.12 0.0775 0.0 0.0 5.0e-04
152 0.12 0.013 0.0 0.0 5.0e-04
153 0.12 0.077 0.0 0.0 5.0e-04
154 0.12 0.0135 0.0 0.0 5.0e-04
155 0.12 0.0765 0.0 0.0 5.0e-04
156 0.12 0.014 0.0 0.0 5.0e-04
157 0.12 0.076 0.0 0.0 5.0e-04
158 0.12 0.0145 0.0 0.0 5.0e-04
159 0.12 0.0755 0.0 0.0 5.0e-04
160 0.12 0.015 0.0 0.0 5.0e-04
161 0.12 0.075 0.0 0.0 5.0e-04
162 0.12 0.0155 0.0 0.0 5.0e-04
163 0.12 0.0745 0.0 0.0 5.0e-04
164 0.12 0.016 0.0 0.0 5.0e-04
165 0.12 0.074 0.0 0.0 5.0e-04
166 0.12 0.0165 0.0 0.0 5.0e-04
167 0.12 0.0735 0.0 0.0 5.0e-04
168 0.12 0.017 0.0 0.0 5.0e-04
169 0.12 0.073 0.0 0.0 5.0e-04
170 0.12 0.0175 0.0 0.0 5.0e-04
171 0.12 0.0725 0.0 0.0 5.0e-04
172 0.12 0.018 0.0 0.0 5.0e-04
173 0.12 0.072 0.0 0.0 5.0e-04
174 0.12 0.0185 0.0 0.0 5.0e-04
175 0.12 0.0715 0.0 0.0 5.0e-04
176 0.12 0.019 0.0 0.0 5.0e-04
177 0.12 0.071 0.0 0.0 5.0e-04
178 0.12 0.0195 0.0 0.0 5.0e-04
179 0.12 0.0705 0.0 0.0 5.0e-04
180 0.12 0.02 0.0 0.0 5.0e-04
181 0.12 0.07 0.0 0.0 5.0e-04
182 0.12 0.0205 0.0 0.0 5.0e-04
183 0.12 0.0695 0.0 0.0 5.0e-04
184 0.12 0.021 0.0 0.0 5.0e-04
185 0.12 0.069 0.0 0.0 5.0e-04
186 0.12 0.0215 0.0 0.0 5.0e-04
187 0.12 0.0685 0.0 0.0 5.0e-04
188 0.12 0.022 0.0 0.0 5.0e-04
189 0.12 0.068 0.0 0.0 5.0e-04
190 0.12 0.0225 0.0 0.0 5.0e-04
191 0.12 0.0675 0.0 0.0 5.0e-04
192 0.12 0.023 0.0 0.0 5.0e-04
193 0.12 0.067 0.0 0.0 5.0e-04
194 0.12 0.0235 0.0 0.0 5.0e-04
195 0.12 0.0665 0.0 0.0 5.0e-04
196 0.12 0.024 0.0 0.0 5.0e-04
197 0.12 0.066 0.0 0.0 5.0e-04
198 0.12 0.0245 0.0 0.0 5.0e-04
199 0.12 0.0655 0.0 0.0 5.0e-04
200 0.12 0.025 0.0 0.0 5.0e-04
201 0.12 0.065 0.0 0.0 5.0e-04
202 0.12 0.0255 0.0 0.0 5.0e-04
203 0.12 0.0645 0.0 0.0 5.0e-04
204 0.12 0.026 0.0 0.0 5.0e-04
205 0.12 0.064 0.0 0.0 5.0e-04
206 0.12 0.0265 0.0 0.0 5.0e-04
207 0.12 0.0635 0.0 0.0 5.0e-04
208 0.12 0.027 0.0 0.0 5.0e-04
209 0.12 0.063 0.0 0.0 5.0e-04
210 0.12 0.0275 0.0 0.0 5.0e-04
211 0.12 0.0625 0.0 0.0 5.0e-04
212 0.12 0.028 0.0 0.0 5.0e-04
213 0.12 0.062 0.0 0.0 5.0e-04
214 0.12 0.0285 0.0 0.0 5.0e-04
215 0.12 0.0615 0.0 0.0 5.0e-04
216 0.12 0.029 0.0 0.0 5.0e-04
217 0.12 0.061 0.0 0.0 5.0e-04
218 0.12 0.0295 0.0 0.0 5.0e-04
219 0.12 0.0605 0.0 0.0 5.0e-04
220 0.12 0.03 0.0 0.0 5.0e-04
221 0.12 0.06 0.0 0.0 5.0e-04
222 0.12 0.0305 0.0 0.0 5.0e-04
223 0.12 0.0595 0.0 0.0 5.0e-04
224 0.12 0.031 0.0 0.0 5.0e-04
225 0.12 0.059 0.0 0.0 5.0e-04
226 0.12 0.0315 0.0 0.0 5.0e-04
227 0.12 0.0585 0.0 0.0 5.0e-04
228 0.12 0.032 0.0 0.0 5.0e-04
229 0.12 0.058 0.0 0.0 5.0e-04
230 0.12 0.0325 0.0 0.0 5.0e-04
231 0.12 0.0575 0.0 0.0 5.0e-04
232 0.12 0.033 0.0 0.0 5.0e-04
233 0.12 0.057 0.0 0.0 5.0e-04
234 0.12 0.0335 0.0 0.0 5.0e-04
235 0.12 0.0565 0.0 0.0 5.0e-04
236 0.12 0.034 0.0 0.0 5.0e-04
237 0.12 0.056 0.0 0.0 5.0e-04
238 0.12 0.0345 0.0 0.0 5.0e-04
239 0.12 0.0555 0.0 0.0 5.0e-04
240 0.12 0.035 0.0 0.0 5.0e-04
241 0.12 0.055 0.0 0.0 5.0e-04
242 0.12 0.0355 0.0 0.0 5.0e-04
243 0.12 0.0545 0.0 0.0 5.0e-04
244 0.12 0.036 0.0 0.0 5.0e-04
245 0.12 0.054 0.0 0.0 5.0e-04
246 0.12 0.0365 0.0 0.0 5.0e-04
247 0.12 0.0535 0.0 0.0 5.0e-04
248 0.12 0.037 0.0 0.0 5.0e-04
249 0.12 0.053 0.0 0.0 5.0e-04
250 0.12 0.0375 0.0 0.0 5.0e-04
251 0.12 0.0525 0.0 0.0 5.0e-04
252 0.12 0.038 0.0 0.0 5.0e-04
253 0.12 0.052 0.0 0.0 5.0e-04
254 0.12 0.0385 0.0 0.0 5.0e-04
255 0.12 0.0515 0.0 0.0 5.0e-04
256 0.12 0.039 0.0 0.0 5.0e-04
257 0.12 0.051 0.0 0.0 5.0e-04
258 0.12 0.0395 0.0 0.0 5.0e-04
259 0.12 0.0505 0.0 0.0 5.0e-04
ITEM: TIMESTEP
1
ITEM: NUMBER OF ATOMS
260
ITEM: BOX BOUNDS ff ff ff
0.0 0.24
0.0 0.09
0.0 2.0
ITEM: ATOMS id x y fx fy radius
0 0.0092266727 0.0230297951 0.0076719522 0.0064141367 0.0015
1 0.0813903092 0.0645867836 -0.0094871375 -0.0031613639 0.0015
2 0.0731267686 0.0575256665 -0.0098885025 0.0014891334 0.0015
3 0.0520912544 0.0185072645 0.0063419327 -0.0077317456 0.0015
4 0.0456404366 0.0371150926 0.0098524902 0.0017112678 0.0015
5 0.0721008476 0.0867217669 -0.003626413 -0.009319288 0.0015
6 0.0370035589 0.0715282575 0.0062589565 0.0077990682 0.0015
7 0.0623736672 0.046202735 -0.0061156075 -0.0079119748 0.0015
8 0.0717700988 0.053193035 -0.0098566676 0.0016870397 0.0015
9 0.0926575574 0.0814154927 -0.0099439879 0.0010569316 0.0015
10 0.0083580712 0.0745239168 -0.0098991142 -0.001416876 0.0015
11 0.0559042966 0.0620443771 0.0099271554 -0.0012048176 0.0015
12 0.1106647006 0.0351096569 -0.0078061057 0.0062501771 0.0015
13 0.0483978339 0.0881309262 0.003623056 0.0093205936 0.0015
14 0.0411238193 0.0412110819 2.4525602886e-04 0.009996992 0.0015
15 0.0060012369 0.0178359153 0.0070166524 0.0071250676 0.0015
16 0.0178086214 0.0375373738 -0.0057404201 0.0081882585 0.0015
17 0.0268071539 0.0397627132 0.0051098858 -0.008595875 0.0015
18 0.1026063285 0.0029720792 0.0099398185 -0.0010954486 0.0015
19 0.0991470817 0.0868005467 0.0097714101 0.0021259222 0.0015
20 0.0278923198 0.0074206932 0.0020225431 -0.0097933303 0.0015
21 0.0443905901 0.0279733591 -0.0013871478 0.0099033237 0.0015
22 0.0779407215 0.0483207252 0.0036882608 0.0092949842 0.0015
23 0.0580786362 0.0156442976 3.0473976657e-04 -0.0099953556 0.0015
24 0.0554045237 0.0522838562 0.0021981263 0.0097554211 0.0015
25 0.0167233953 0.0857669783 -0.0090971206 -0.0041523965 0.0015
26 0.0695065395 0.0431141708 -0.0098073398 0.0019534807 0.0015
27 0.0125929178 0.085159546 0.0063607978 0.007716233 0.0015
28 0.1152861384 0.0113797001 -0.0097723861 0.002121431 0.0015
29 0.0620885636 0.0542442405 -0.0018265868 0.0098317639 0.0015
30 0.1022613376 0.0763674549 -0.0070898782 -0.0070522073 0.0015
31 0.0356864524 0.0573512756 -0.0024018253 0.0097072774 0.0015
32 0.0360149982 0.031268717 -0.0098591633 -0.0016723931 0.0015
33 0.0185932236 0.0081021726 9.0171775636e-04 0.0099592623 0.0015
34 0.0397478624 0.0467774333 0.0062748583 0.0077862798 0.0015
35 0.060967842 0.0278537995 0.0093436067 -0.0035632868 0.0015
36 0.0096762403 0.0417499257 -0.0068196293 -0.0073138674 0.0015
37 0.0081856286 0.0586541041 0.0017936038 0.0098378344 0.0015
38 0.0551803225 0.076553955 -0.0083652938 0.0054792207 0.0015
39 0.0986197828 0.0489418661 0.0082648723 0.0056295546 0.0015
40 0.0366738172 0.0422806053 -0.0062922192 -0.0077722569 0.0015
41 0.0918681359 0.0085131218 -0.0099991135 1.3315181071e-04 0.0015
42 0.0542899639 0.0791025012 -0.003983387 -0.009172384 0.0015
43 0.0836887627 0.0752389652 -0.0081776015 0.0057555915 0.0015
44 0.0306079692 0.0380121787 0.0086283836 -0.0050547993 0.0015
45 0.0149441237 0.0701919555 -0.0065967142 0.0016827609 0.0015
46 0.048292029 0.0629903872 -0.0097168115 -0.0023629589 0.0015
47 0.0637554073 0.0296363701 -0.0087147287 -0.0049044371 0.0015
48 0.0429115054 0.0691531439 -0.007241393 0.0068965373 0.0015
49 0.0041535837 0.0578332174 0.0081550218 -0.00578754 0.0015
50 0.0986761834 0.0571451847 0.0066231325 0.0074922704 0.0015
51 0.0277373982 0.0284009643 0.0082508793 -0.0056500435 0.0015
52 0.0605788846 0.037756908 -0.0035964852 -0.0093308785 0.0015
53 0.0194645376 0.0538394397 0.0095675112 0.0029090771 0.0015
54 0.099656203 0.0531254948 -0.0077531838 -0.0063157058 0.0015
55 0.0882920071 0.0795238466 0.0097521512 0.0022125883 0.0015
56 0.017969121 0.0328134433 0.0099905455 4.3474257056e-04 0.0015
57 0.0314478517 0.071107773 -0.0057238289 -0.0081998648 0.0015
58 0.0257359627 0.0046917078 -0.0096764342 0.0025232164 0.0015
59 0.0636989675 0.0775190073 0.009218319 -0.0038758991 0.0015
60 0.0457782364 0.0110980209 0.0098916311 0.001468208 0.0015
61 0.0284568624 0.0512824618 -0.0073717071 0.0067570655 0.0015
62 0.1023961064 0.0269891697 0.0021820539 -0.0097590287 0.0015
63 0.0032916986 0.0428832307 -0.0024152852 0.0097039372 0.0015
64 0.0277481085 0.0781359047 -0.0010968927 -0.0099396593 0.0015
65 0.0825602246 0.0026137338 -0.0059874002 0.0080094344 0.0015
66 0.0320766654 0.0084073605 0.0099994143 -1.0822870985e-04 0.0015
67 0.041712188 0.0651951502 0.0080798403 -0.0058920438 0.0015
68 0.0194540606 0.0612186874 -0.0099576673 -9.191633236e-04 0.0015
69 0.0656104431 0.072457535 -0.0086971521 -0.004935539 0.0015
70 0.0126313489 0.0434482399 -0.009380274 -0.0034656111 0.0015
71 0.0810431168 0.0777736565 0.0065521408 -0.0075544325 0.0015
72 0.10920297 0.0164555787 0.0099923344 3.9147560301e-04 0.0015
73 0.1068449858 0.068867215 0.0086782216 -0.0049687493 0.0015
74 0.0380382386 0.084757756 0.0056917985 0.0082221305 0.0015
75 0.0981113867 0.021844954 0.0042291361 -0.0090617001 0.0015
76 0.0201101509 0.0256869642 -0.0097796537 0.0020876719 0.0015
77 0.0117972226 0.0701364615 -0.010570399 -0.0064744377 0.0015
78 0.0113464253 0.0521972707 0.0013590183 -0.0099072231 0.0015
79 0.0577050281 0.0251561126 -0.0099745028 -7.1364848625e-04 0.0015
80 0.1067136652 0.0658700906 0.0023814308 0.0097123008 0.0015
81 0.077284133 0.0370576942 0.0050634624 0.0086233027 0.0015
82 0.0368903556 0.0639006917 0.009639133 -0.0026621637 0.0015
83 0.0396529205 0.0585238834 0.0099995601 9.3794706274e-05 0.0015
84 0.1073223582 0.0040777382 0.0095020861 0.0031161449 0.0015
85 0.0478230506 0.0834506664 0.0099774425 -6.7129794327e-04 0.0015
86 0.0616380026 0.004337535 -0.0025840438 -0.0096603684 0.0015
87 0.0238161435 0.075178867 -0.0033004126 0.0094396651 0.0015
88 0.0099069302 0.0639701995 -0.0094173814 -0.0033634697 0.0015
89 0.0055031773 0.00941385 0.001700054 -0.0098544313 0.0015
90 0.0029055862 0.0690287764 -0.0077882091 0.0062724636 0.0015
91 0.0094072418 0.0489301568 0.0085090302 -0.005253228 0.0015
92 0.0985107275 0.0783664026 -0.009065917 0.0042200888 0.0015
93 0.0025837288 0.022227314 -0.0014665499 -0.009891877 0.0015
94 0.0263696407 0.0860457298 0.0042718556 0.0090416398 0.0015
95 0.0861474442 0.0628008023 -0.0038592698 -0.0092252933 0.0015
96 0.0530242199 0.0353089085 0.0020297085 0.0097918478 0.0015
97 0.0448870848 0.0329738576 -0.0075496092 -0.0065576978 0.0015
98 0.0818673124 0.0344675545 -0.0080804608 -0.0058911928 0.0015
99 0.0841594742 0.0676941374 0.0043045631 -0.0090261141 0.0015
100 0.12 0.0 0.0 0.0 5.0e-04
101 0.12 0.09 0.0 0.0 5.0e-04
102 0.12 5.0e-04 0.0 0.0 5.0e-04
103 0.12 0.0895 0.0 0.0 5.0e-04
104 0.12 0.001 0.0 0.0 5.0e-04
105 0.12 0.089 0.0 0.0 5.0e-04
106 0.12 0.0015 0.0 0.0 5.0e-04
107 0.12 0.0885 0.0 0.0 5.0e-04
108 0.12 0.002 0.0 0.0 5.0e-04
109 0.12 0.088 0.0 0.0 5.0e-04
110 0.12 0.0025 0.0 0.0 5.0e-04
111 0.12 0.0875 0.0 0.0 5.0e-04
112 0.12 0.003 0.0 0.0 5.0e-04
113 0.12 0.087 0.0 0.0 5.0e-04
114 0.12 0.0035 0.0 0.0 5.0e-04
115 0.12 0.0865 0.0 0.0 5.0e-04
116 0.12 0.004 0.0 0.0 5.0e-04
117 0.12 0.086 0.0 0.0 5.0e-04
118 0.12 0.0045 0.0 0.0 5.0e-04
119 0.12 0.0855 0.0 0.0 5.0e-04
120 0.12 0.005 0.0 0.0 5.0e-04
121 0.12 0.085 0.0 0.0 5.0e-04
122 0.12 0.0055 0.0 0.0 5.0e-04
123 0.12 0.0845 0.0 0.0 5.0e-04
124 0.12 0.006 0.0 0.0 5.0e-04
125 0.12 0.084 0.0 0.0 5.0e-04
126 0.12 0.0065 0.0 0.0 5.0e-04
127 0.12 0.0835 0.0 0.0 5.0e-04
128 0.12 0.007 0.0 0.0 5.0e-04
129 0.12 0.083 0.0 0.0 5.0e-04
130 0.12 0.0075 0.0 0.0 5.0e-04
131 0.12 0.0825 0.0 0.0 5.0e-04
132 0.12 0.008 0.0 0.0 5.0e-04
133 0.12 0.082 0.0 0.0 5.0e-04
134 0.12 0.0085 0.0 0.0 5.0e-04
135 0.12 0.0815 0.0 0.0 5.0e-04
136 0.12 0.009 0.0 0.0 5.0e-04
137 0.12 0.081 0.0 0.0 5.0e-04
138 0.12 0.0095 0.0 0.0 5.0e-04
139 0.12 0.0805 0.0 0.0 5.0e-04
140 0.12 0.01 0.0 0.0 5.0e-04
141 0.12 0.08 0.0 0.0 5.0e-04
142 0.12 0.0105 0.0 0.0 5.0e-04
143 0.12 0.0795 0.0 0.0 5.0e-04
144 0.12 0.011 0.0 0.0 5.0e-04
145 0.12 0.079 0.0 0.0 5.0e-04
146 0.12 0.0115 0.0 0.0 5.0e-04
147 0.12 0.0785 0.0 0.0 5.0e-04
148 0.12 0.012 0.0 0.0 5.0e-04
149 0.12 0.078 0.0 0.0 5.0e-04
150 0.12 0.0125 0.0 0.0 5.0e-04
151 0.12 0.0775 0.0 0.0 5.0e-04
152 0.12 0.013 0.0 0.0 5.0e-04
153 0.12 0.077 0.0 0.0 5.0e-04
154 0.12 0.0135 0.0 0.0 5.0e-04
155 0.12 0.0765 0.0 0.0 5.0e-04
156 0.12 0.014 0.0 0.0 5.0e-04
157 0.12 0.076 0.0 0.0 5.0e-04
158 0.12 0.0145 0.0 0.0 5.0e-04
159 0.12 0.0755 0.0 0.0 5.0e-04
160 0.12 0.015 0.0 0.0 5.0e-04
161 0.12 0.075 0.0 0.0 5.0e-04
162 0.12 0.0155 0.0 0.0 5.0e-04
163 0.12 0.0745 0.0 0.0 5.0e-04
164 0.12 0.016 0.0 0.0 5.0e-04
165 0.12 0.074 0.0 0.0 5.0e-04
166 0.12 0.0165 0.0 0.0 5.0e-04
167 0.12 0.0735 0.0 0.0 5.0e-04
168 0.12 0.017 0.0 0.0 5.0e-04
169 0.12 0.073 0.0 0.0 5.0e-04
170 0.12 0.0175 0.0 0.0 5.0e-04
171 0.12 0.0725 0.0 0.0 5.0e-04
172 0.12 0.018 0.0 0.0 5.0e-04
173 0.12 0.072 0.0 0.0 5.0e-04
174 0.12 0.0185 0.0 0.0 5.0e-04
175 0.12 0.0715 0.0 0.0 5.0e-04
176 0.12 0.019 0.0 0.0 5.0e-04
177 0.12 0.071 0.0 0.0 5.0e-04
178 0.12 0.0195 0.0 0.0 5.0e-04
179 0.12 0.0705 0.0 0.0 5.0e-04
180 0.12 0.02 0.0 0.0 5.0e-04
181 0.12 0.07 0.0 0.0 5.0e-04
182 0.12 0.0205 0.0 0.0 5.0e-04
183 0.12 0.0695 0.0 0.0 5.0e-04
184 0.12 0.021 0.0 0.0 5.0e-04
185 0.12 0.069 0.0 0.0 5.0e-04
186 0.12 0.0215 0.0 0.0 5.0e-04
187 0.12 0.0685 0.0 0.0 5.0e-04
188 0.12 0.022 0.0 0.0 5.0e-04
189 0.12 0.068 0.0 0.0 5.0e-04
190 0.12 0.0225 0.0 0.0 5.0e-04
191 0.12 0.0675 0.0 0.0 5.0e-04
192 0.12 0.023 0.0 0.0 5.0e-04
193 0.12 0.067 0.0 0.0 5.0e-04
194 0.12 0.0235 0.0 0.0 5.0e-04
195 0.12 0.0665 0.0 0.0 5.0e-04
196 0.12 0.024 0.0 0.0 5.0e-04
197 0.12 0.066 0.0 0.0 5.0e-04
198 0.12 0.0245 0.0 0.0 5.0e-04
199 0.12 0.0655 0.0 0.0 5.0e-04
200 0.12 0.025 0.0 0.0 5.0e-04
201 0.12 0.065 0.0 0.0 5.0e-04
202 0.12 0.0255 0.0 0.0 5.0e-04
203 0.12 0.0645 0.0 0.0 5.0e-04
204 0.12 0.026 0.0 0.0 5.0e-04
205 0.12 0.064 0.0 0.0 5.0e-04
206 0.12 0.0265 0.0 0.0 5.0e-04
207 0.12 0.0635 0.0 0.0 5.0e-04
208 0.12 0.027 0.0 0.0 5.0e-04
209 0.12 0.063 0.0 0.0 5.0e-04
210 0.12 0.0275 0.0 0.0 5.0e-04
211 0.12 0.0625 0.0 0.0 5.0e-04
212 0.12 0.028 0.0 0.0 5.0e-04
213 0.12 0.062 0.0 0.0 5.0e-04
214 0.12 0.0285 0.0 0.0 5.0e-04
215 0.12 0.0615 0.0 0.0 5.0e-04
216 0.12 0.029 0.0 0.0 5.0e-04
217 0.12 0.061 0.0 0.0 5.0e-04
218 0.12 0.0295 0.0 0.0 5.0e-04
219 0.12 0.0605 0.0 0.0 5.0e-04
220 0.12 0.03 0.0 0.0 5.0e-04
221 0.12 0.06 0.0 0.0 5.0e-04
222 0.12 0.0305 0.0 0.0 5.0e-04
223 0.12 0.0595 0.0 0.0 5.0e-04
224 0.12 0.031 0.0 0.0 5.0e-04
225 0.12 0.059 0.0 0.0 5.0e-04
226 0.12 0.0315 0.0 0.0 5.0e-04
227 0.12 0.0585 0.0 0.0 5.0e-04
228 0.12 0.032 0.0 0.0 5.0e-04
229 0.12 0.058 0.0 0.0 5.0e-04
230 0.12 0.0325 0.0 0.0 5.0e-04
231 0.12 0.0575 0.0 0.0 5.0e-04
232 0.12 0.033 0.0 0.0 5.0e-04
233 0.12 0.057 0.0 0.0 5.0e-04
234 0.12 0.0335 0.0 0.0 5.0e-04
235 0.12 0.0565 0.0 0.0 5.0e-04
236 0.12 0.034 0.0 0.0 5.0e-04
237 0.12 0.056 0.0 0.0 5.0e-04
238 0.12 0.0345 0.0 0.0 5.0e-04
239 0.12 0.0555 0.0 0.0 5.0e-04
240 0.12 0.035 0.0 0.0 5.0e-04
241 0.12 0.055 0.0 0.0 5.0e-04
242 0.12 0.0355 0.0 0.0 5.0e-04
243 0.12 0.0545 0.0 0.0 5.0e-04
244 0.12 0.036 0.0 0.0 5.0e-04
245 0.12 0.054 0.0 0.0 5.0e-04
246 0.12 0.0365 0.0 0.0 5.0e-04
247 0.12 0.0535 0.0 0.0 5.0e-04
248 0.12 0.037 0.0 0.0 5.0e-04
249 0.12 0.053 0.0 0.0 5.0e-04
250 0.12 0.0375 0.0 0.0 5.0e-04
251 0.12 0.0525 0.0 0.0 5.0e-04
252 0.12 0.038 0.0 0.0 5.0e-04
253 0.12 0.052 0.0 0.0 5.0e-04
254 0.12 0.0385 0.0 0.0 5.0e-04
255 0.12 0.0515 0.0 0.0 5.0e-04
256 0.12 0.039 0.0 0.0 5.0e-04
257 0.12 0.051 0.0 0.0 5.0e-04
258 0.12 0.0395 0.0 0.0 5.0e-04
259 0.12 0.0505 0.0 0.0 5.0e-04
ITEM: TIMESTEP
2
ITEM: NUMBER OF ATOMS
260
ITEM: BOX BOUNDS ff ff ff
0.0 0.24
0.0 0.09
0.0 2.0
ITEM: ATOMS id x y fx fy radius
0 0.0093776272 0.0231560006 0.0076719522 0.0064141367 0.0015
1 0.0812036389 0.0645245802 -0.0094871375 -0.0031613639 0.0015
2 0.0729322009 0.0575549669 -0.0098885025 0.0014891334 0.0015
3 0.0522160392 0.0183551336 0.0063419327 -0.0077317456 0.0015
4 0.0458342956 0.0371487637 0.0098524902 0.0017112678 0.0015
5 0.0720294937 0.0865383992 -0.003626413 -0.009319288 0.0015
6 0.037126711 0.0716817131 0.0062589565 0.0077990682 0.0015
7 0.0622533356 0.0460470578 -0.0061156075 -0.0079119748 0.0015
8 0.0715761575 0.0532262295 -0.0098566676 0.0016870397 0.0015
9 0.092461898 0.0814362891 -0.0099439879 0.0010569316 0.0015
10 0.0081632948 0.0744960381 -0.0098991142 -0.001416876 0.0015
11 0.0560996248 0.0620206709 0.0099271554 -0.0012048176 0.0015
12 0.1105111066 0.0352326363 -0.0078061057 0.0062501771 0.0015
13 0.0484691217 0.0883143195 0.003623056 0.0093205936 0.0015
14 0.041128645 0.0414077842 2.4525602886e-04 0.009996992 0.0015
15 0.0061392976 0.0179761092 0.0070166524 0.0071250676 0.0015
16 0.0176956721 0.0376984871 -0.0057404201 0.0081882585 0.0015
17 0.0269076968 0.0395935795 0.0051098858 -0.008595875 0.0015
18 0.1028019058 0.002950525 0.0099398185 -0.0010954486 0.0015
19 0.0993393454 0.0868423766 0.0097714101 0.0021259222 0.0015
20 0.0279321156 0.0072279982 0.0020225431 -0.0097933303 0.0015
21 0.0443632963 0.0281682183 -0.0013871478 0.0099033237 0.0015
22 0.0780132923 0.0485036147 0.0036882608 0.0092949842 0.0015
23 0.0580846323 0.0154476275 3.0473976657e-04 -0.0099953556 0.0015
24 0.0554477744 0.0524758053 0.0021981263 0.0097554211 0.0015
25 0.016544399 0.0856852751 -0.0090971206 -0.0041523965 0.0015
26 0.0693135688 0.0431526077 -0.0098073398 0.0019534807 0.0015
27 0.0127180738 0.0853113718 0.0063607978 0.007716233 0.0015
28 0.1150938555 0.0114214417 -0.0097723861 0.002121431 0.0015
29 0.0620526234 0.0544376918 -0.0018265868 0.0098317639 0.0015
30 0.1021218361 0.0762286946 -0.0070898782 -0.0070522073 0.0015
31 0.0356391937 0.0575422774 -0.0024018253 0.0097072774 0.0015
32 0.0358210079 0.0312358108 -0.0098591633 -0.0016723931 0.0015
33 0.0186109659 0.0082981325 9.0171775636e-04 0.0099592623 0.0015
34 0.0398713275 0.0469306373 0.0062748583 0.0077862798 0.0015
35 0.0611516882 0.0277836877 0.0093436067 -0.0035632868 0.0015
36 0.0095420562 0.041606017 -0.0068196293 -0.0073138674 0.0015
37 0.0082209198 0.0588476748 0.0017936038 0.0098378344 0.0015
38 0.0550157257 0.0766617649 -0.0083652938 0.0054792207 0.0015
39 0.0987824037 0.0490526341 0.0082648723 0.0056295546 0.0015
40 0.0365500105 0.0421276772 -0.0062922192 -0.0077722569 0.0015
41 0.0916713918 0.0085157417 -0.0099991135 1.3315181071e-04 0.0015
42 0.0542115862 0.078922024 -0.003983387 -0.009172384 0.0015
43 0.083527859 0.0753522131 -0.0081776015 0.0057555915 0.0015
44 0.0307777426 0.0379127198 0.0086283836 -0.0050547993 0.0015
45 0.0148143258 0.0702250658 -0.0065967142 0.0016827609 0.0015
46 0.0481008396 0.0629438932 -0.0097168115 -0.0023629589 0.0015
47 0.0635839351 0.0295398697 -0.0087147287 -0.0049044371 0.0015
48 0.0427690226 0.0692888412 -0.007241393 0.0068965373 0.0015
49 0.0043140431 0.0577193409 0.0081550218 -0.00578754 0.0015
50 0.0988065011 0.0572926037 0.0066231325 0.0074922704 0.0015
51 0.0278997437 0.0282897932 0.0082508793 -0.0056500435 0.0015
52 0.0605081197 0.0375733123 -0.0035964852 -0.0093308785 0.0015
53 0.0196527893 0.0538966791 0.0095675112 0.0029090771 0.0015
54 0.0995036502 0.053001226 -0.0077531838 -0.0063157058 0.0015
55 0.0884838919 0.0795673818 0.0097521512 0.0022125883 0.0015
56 0.0181656964 0.0328219973 0.0099905455 4.3474257056e-04 0.0015
57 0.0313352288 0.0709464313 -0.0057238289 -0.0081998648 0.0015
58 0.0255455678 0.004741355 -0.0096764342 0.0025232164 0.0015
59 0.0638803485 0.0774427445 0.009218319 -0.0038758991 0.0015
60 0.0459728656 0.0111269096 0.0098916311 0.001468208 0.0015
61 0.0283118156 0.0514154148 -0.0073717071 0.0067570655 0.0015
62 0.1024390408 0.0267971496 0.0021820539 -0.0097590287 0.0015
63 0.0032441751 0.0430741668 -0.0024152852 0.0097039372 0.0015
64 0.0277265258 0.0779403305 -0.0010968927 -0.0099396593 0.0015
65 0.0824424157 0.0027713286 -0.0059874002 0.0080094344 0.0015
66 0.0322734154 0.008405231 0.0099994143 -1.0822870985e-04 0.0015
67 0.0418711681 0.0650792174 0.0080798403 -0.0058920438 0.0015
68 0.0192581321 0.0612006018 -0.0099576673 -9.191633236e-04 0.0015
69 0.0654393166 0.0723604226 -0.0086971521 -0.004935539 0.0015
70 0.0124467813 0.0433800501 -0.009380274 -0.0034656111 0.0015
71 0.0811720377 0.0776250144 0.0065521408 -0.0075544325 0.0015
72 0.1093995806 0.0164632815 0.0099923344 3.9147560301e-04 0.0015
73 0.1070281349 0.069052344 0.0093081814 0.0094088017 0.0015
74 0.0381502312 0.0849195358 0.0056917985 0.0082221305 0.0015
75 0.0981945998 0.0216666547 0.0042291361 -0.0090617001 0.0015
76 0.019917725 0.0257280416 -0.0097796537 0.0020876719 0.0015
77 0.0115892379 0.0700090695 -0.010570399 -0.0064744377 0.0015
78 0.0113731655 0.0520023347 0.0013590183 -0.0099072231 0.0015
79 0.0575087683 0.0251420707 -0.0099745028 -7.1364848625e-04 0.0015
80 0.1067481274 0.0657782964 0.001751471 -0.0046652502 0.0015
81 0.0773837624 0.0372273676 0.0050634624 0.0086233027 0.0015
82 0.0370800166 0.0638483106 0.009639133 -0.0026621637 0.0015
83 0.0398496733 0.0585257289 0.0099995601 9.3794706274e-05 0.0015
84 0.1075093227 0.004139052 0.0095020861 0.0031161449 0.0015
85 0.0480193683 0.0834374579 0.0099774425 -6.7129794327e-04 0.0015
86 0.0615871586 0.0041474562 -0.0025840438 -0.0096603684 0.0015
87 0.023751204 0.0753646032 -0.0033004126 0.0094396651 0.0015
88 0.0097216324 0.0639040194 -0.0094173814 -0.0033634697 0.0015
89 0.0055366279 0.0092199527 0.001700054 -0.0098544313 0.0015
90 0.0027523443 0.0691521943 -0.0077882091 0.0062724636 0.0015
91 0.0095746667 0.0488267935 0.0085090302 -0.005253228 0.0015
92 0.0983323452 0.0784494377 -0.009065917 0.0042200888 0.0015
93 0.0025548728 0.02203268 -0.0014665499 -0.009891877 0.0015
94 0.0264536944 0.0862236344 0.0042718556 0.0090416398 0.0015
95 0.0860715086 0.0626192841 -0.0038592698 -0.0092252933 0.0015
96 0.0530641568 0.0355015744 0.0020297085 0.0097918478 0.0015
97 0.0447385375 0.0328448273 -0.0075496092 -0.0065576978 0.0015
98 0.0817083201 0.0343516385 -0.0080804608 -0.0058911928 0.0015
99 0.0842441714 0.0675165382 0.0043045631 -0.0090261141 0.0015
100 0.12 0.0 0.0 0.0 5.0e-04
101 0.12 0.09 0.0 0.0 5.0e-04
102 0.12 5.0e-04 0.0 0.0 5.0e-04
103 0.12 0.0895 0.0 0.0 5.0e-04
104 0.12 0.001 0.0 0.0 5.0e-04
105 0.12 0.089 0.0 0.0 5.0e-04
106 0.12 0.0015 0.0 0.0 5.0e-04
107 0.12 0.0885 0.0 0.0 5.0e-04
108 0.12 0.002 0.0 0.0 5.0e-04
109 0.12 0.088 0.0 0.0 5.0e-04
110 0.12 0.0025 0.0 0.0 5.0e-04
111 0.12 0.0875 0.0 0.0 5.0e-04
112 0.12 0.003 0.0 0.0 5.0e-04
113 0.12 0.087 0.0 0.0 5.0e-04
114 0.12 0.0035 0.0 0.0 5.0e-04
115 0.12 0.0865 0.0 0.0 5.0e-04
116 0.12 0.004 0.0 0.0 5.0e-04
117 0.12 0.086 0.0 0.0 5.0e-04
118 0.12 0.0045 0.0 0.0 5.0e-04
119 0.12 0.0855 0.0 0.0 5.0e-04
120 0.12 0.005 0.0 0.0 5.0e-04